/*--------------------------------*- C++ -*----------------------------------*\
  =========                 |
  \\      /  F ield         | OpenFOAM: The Open Source CFD Toolbox
   \\    /   O peration     | Website:  https://openfoam.org
    \\  /    A nd           | Version:  6
     \\/     M anipulation  |
\*---------------------------------------------------------------------------*/
FoamFile
{
    version     2.0;
    format      ascii;
    class       volVectorField;
    location    "0.00974051494";
    object      qWall;
}
// * * * * * * * * * * * * * * * * * * * * * * * * * * * * * * * * * * * * * //

dimensions      [1 0 -3 0 0 0 0];

internalField   uniform (0 0 0);

boundaryField
{
    inlet
    {
        type            calculated;
        value           uniform (0 0 0);
    }
    outlet
    {
        type            calculated;
        value           uniform (0 0 0);
    }
    staticwall
    {
        type            calculated;
        value           nonuniform List<vector> 
2400
(
(22.3831841714 0.988048613916 0.0448638202517)
(22.3901037712 1.02536602301 0.0581444561732)
(22.3822834075 1.03583621118 0.0718162237951)
(22.3476376803 0.999109758516 0.0711644964945)
(22.2980783381 0.913724454601 0.091660757175)
(22.2485567588 0.805160417501 0.0951955780359)
(22.1974361796 0.653840880109 0.0939226669476)
(22.1582887135 0.493249847185 0.0989707201068)
(22.1268943079 0.303163730655 0.102103626691)
(22.1095934375 0.100233155082 0.108159893833)
(22.3796781252 0.970526868941 0.144948657987)
(22.3910501268 1.0093854863 0.176522739066)
(22.3920006733 1.03060869244 0.196361213104)
(22.3578055957 0.990816643799 0.220800569275)
(22.3092319036 0.904325828817 0.24800506574)
(22.2613167971 0.798482483744 0.256337233674)
(22.2153359689 0.65838776015 0.281736195409)
(22.1723362061 0.477028334545 0.296720284718)
(22.1435896724 0.303437042754 0.295950361939)
(22.1270148573 0.101140614626 0.304934384953)
(22.3709466516 0.936845593517 0.231321457304)
(22.3934352209 0.981606883081 0.279298685354)
(22.3871599848 0.988416709931 0.306969120882)
(22.3673838353 0.958833487954 0.359668947501)
(22.3295960499 0.882395745909 0.407137787128)
(22.2859953866 0.77843478655 0.434007485237)
(22.2392809446 0.632363521617 0.458978773698)
(22.2011315841 0.474777790994 0.470657981347)
(22.1745498049 0.286862794442 0.495417466608)
(22.1589378403 0.0977679530099 0.496715460571)
(22.3501777781 0.88573749871 0.298675096587)
(22.3817486514 0.92995381482 0.36218041626)
(22.4023754321 0.957502825249 0.424702386974)
(22.3775042131 0.915603402144 0.476845570584)
(22.3463706019 0.843144873489 0.529038523718)
(22.3138058088 0.746185376107 0.578889008543)
(22.2753516684 0.616719598752 0.611664608499)
(22.2448167543 0.462016485468 0.65071492338)
(22.2152803343 0.276734149182 0.661127784542)
(22.1993934428 0.0981360305868 0.658453952702)
(22.3360750993 0.834312178799 0.365065908399)
(22.3742414719 0.873206529091 0.442643203405)
(22.3970055936 0.889888552861 0.515278762644)
(22.3844556752 0.852150903053 0.580761587636)
(22.3688032311 0.791945144127 0.647976286874)
(22.3423001745 0.699863698604 0.70004881358)
(22.3125816342 0.572007260296 0.748143470554)
(22.2855828022 0.428586901611 0.780615813684)
(22.2637612653 0.265080945463 0.801574424952)
(22.2519081281 0.0838560839194 0.813729625521)
(22.3089353352 0.763398520405 0.422929972873)
(22.3636588866 0.81372100978 0.500638519955)
(22.395262803 0.826125476001 0.585637981327)
(22.3984080818 0.793736435571 0.666946153738)
(22.3882805263 0.724478704176 0.746015855338)
(22.3744748424 0.648320196345 0.802900471605)
(22.3483422449 0.530376092517 0.845059893334)
(22.3259899173 0.392934569908 0.880275145374)
(22.3136488897 0.23949472584 0.915755651298)
(22.3030664812 0.0768662050887 0.925411923314)
(22.2693211831 0.690654493783 0.448675860335)
(22.3286777575 0.734981414307 0.53032310912)
(22.3737299591 0.74404093371 0.628459049532)
(22.3973923063 0.722746121828 0.71869266298)
(22.3857732884 0.653516729661 0.782930788055)
(22.3883431753 0.58188232791 0.857504126807)
(22.3798709875 0.478816079364 0.916327731954)
(22.3622070179 0.348628419 0.95189737163)
(22.3549169314 0.217202202137 0.985118628955)
(22.3488422071 0.0664277546663 0.999887180883)
(22.2151432313 0.612888753778 0.45419338431)
(22.2970090236 0.653381356522 0.560686996002)
(22.3399153312 0.653220325519 0.649934541957)
(22.3740912075 0.627608616649 0.74512302004)
(22.3887340428 0.584378420366 0.817980732136)
(22.3943530514 0.51402214995 0.886975262495)
(22.3961502567 0.419551276547 0.949877668702)
(22.3975899383 0.315079309657 1.0007109155)
(22.3869938391 0.188247693343 1.02407989426)
(22.3756583323 0.0646718468106 1.02527103795)
(22.1550163213 0.534840342685 0.452364072657)
(22.2321395134 0.557342849172 0.556566974891)
(22.2941719902 0.560615936805 0.651649991484)
(22.3359170267 0.538822519967 0.739113868821)
(22.362539393 0.497538559298 0.815298082039)
(22.3767771145 0.449711397527 0.873507089628)
(22.3848472392 0.35779760291 0.935491121333)
(22.3898177759 0.265168470111 0.981371849634)
(22.3965328138 0.176617029305 1.01710281996)
(22.3930979973 0.0541350137964 1.03011921034)
(22.0657183497 0.436737480416 0.434426860889)
(22.1505185396 0.455597248956 0.528244860278)
(22.2113044189 0.454829295915 0.610696999226)
(22.2665987961 0.439887967643 0.695297859303)
(22.3142933439 0.406975818974 0.779453688386)
(22.3419827626 0.363910724495 0.842334861219)
(22.3568581341 0.304370540655 0.892427533986)
(22.3599755379 0.222933213186 0.928115413163)
(22.3737786596 0.14716123223 0.966026064954)
(22.380949337 0.0451282900254 0.987744438767)
(13.3460229885 -1.34789538039 -0.0540799453032)
(13.3720671445 -1.33736079772 -0.170160368014)
(13.2432839673 -1.32740750888 -0.270420899658)
(13.1994016784 -1.30662710874 -0.365363438136)
(13.0699714574 -1.2757178057 -0.47723725557)
(13.0454288832 -1.23689467968 -0.574867447251)
(12.885255691 -1.19576456569 -0.669621525031)
(12.8605409999 -1.14410569093 -0.757537217072)
(12.8356651063 -1.07986609688 -0.84874777178)
(12.7156171974 -1.0077218556 -0.939913779266)
(17.172064083 -0.987937839172 -0.0393066916673)
(17.1167151549 -0.989973542407 -0.11970905731)
(16.897064642 -1.00536540003 -0.20012374454)
(16.8172582215 -0.994429340866 -0.293463998214)
(16.6951428077 -0.987461037111 -0.366113048043)
(16.5343605668 -0.974014850996 -0.451258283913)
(16.3673785655 -0.955784082476 -0.532257794116)
(16.1050456553 -0.929459649173 -0.630850616466)
(15.9102180084 -0.89881689068 -0.71038424)
(15.6711369602 -0.860636173954 -0.793748231108)
(19.4577055462 -0.561638018732 -0.0200236284723)
(19.3773491987 -0.576017732716 -0.0697445831005)
(19.2653465694 -0.592842963678 -0.126032242602)
(19.1545639617 -0.60674596548 -0.175549515101)
(19.0226312399 -0.618599874339 -0.232785617528)
(18.9143656055 -0.618299662512 -0.29769127021)
(18.7204263784 -0.630702142476 -0.359375097319)
(18.4790396071 -0.639585560117 -0.433578565558)
(18.2426713657 -0.641757377605 -0.50546829601)
(17.9846148206 -0.631782652644 -0.586906513177)
(20.6035360644 -0.219663051571 -0.0119784097748)
(20.5584496805 -0.234174327611 -0.0310951754775)
(20.4870339415 -0.256141689441 -0.0484945447236)
(20.4072623686 -0.275424902411 -0.0839774784628)
(20.3012538332 -0.300899547951 -0.117060380074)
(20.2083629768 -0.318895781396 -0.154080026995)
(20.0768964227 -0.342848065407 -0.195766555061)
(19.8757059376 -0.370667347646 -0.257322857173)
(19.6666927637 -0.398601241713 -0.313985403812)
(19.4288281446 -0.413679421944 -0.388217983592)
(21.1863335321 0.0327078678828 2.55317139131e-06)
(21.1379502485 0.0109010074807 0.000223918509399)
(21.1027300646 -0.00720390659093 0.000405314672027)
(21.0358672475 -0.0355651412904 -0.0114222756182)
(20.9796632689 -0.0620033610779 -0.018952504322)
(20.8956344298 -0.0910804289442 -0.0456334795544)
(20.8061938591 -0.12135638819 -0.0708157853742)
(20.6574502479 -0.162507406964 -0.111579572332)
(20.5202753287 -0.19342870384 -0.156604811984)
(20.3268176483 -0.230536948464 -0.2138477148)
(21.5727677307 0.249791286471 0.0201432575432)
(21.5393928649 0.22993053969 0.0246134356598)
(21.4998016042 0.203778465499 0.0385723825381)
(21.4469802849 0.167358533258 0.0568027569054)
(21.3895887609 0.132053156804 0.0552993364292)
(21.3242034875 0.0941364894059 0.0486057817226)
(21.229114432 0.0501624985446 0.0265253072965)
(21.1325990329 0.00394530568251 0.00795648492296)
(21.0236692976 -0.0361975602434 -0.0271970636753)
(20.8734256882 -0.0796997947019 -0.0769658407534)
(21.8491199366 0.442248231452 0.0228082586729)
(21.8309387594 0.424684150255 0.059605825805)
(21.7928120751 0.392218770508 0.0876643393469)
(21.7512809035 0.357162218912 0.103360125229)
(21.6978457856 0.307114158785 0.132072188996)
(21.6269224793 0.256810053284 0.129929575958)
(21.5506431641 0.207265191345 0.119713136704)
(21.4579686951 0.151179694439 0.103694629915)
(21.3625677772 0.0982784479267 0.080593162336)
(21.2372919953 0.0448126698933 0.0393390525518)
(22.0712425383 0.624349028576 0.0292265084263)
(22.0454106143 0.599907512031 0.0734792216308)
(22.0152483287 0.564599031044 0.122794743621)
(21.9829264434 0.522117826792 0.171705641641)
(21.9297352819 0.466874497952 0.197600685101)
(21.871684597 0.411939124159 0.207005270875)
(21.8005932955 0.351267561208 0.207056261978)
(21.7274022597 0.290779215823 0.201853201829)
(21.6326216319 0.218421724873 0.189876766426)
(21.5165728209 0.158202901933 0.146366213379)
(22.226102266 0.777925814018 0.0348766135468)
(22.2169408229 0.761351232301 0.104668129402)
(22.1917713941 0.724675116778 0.16075958723)
(22.1550672204 0.673026474094 0.215407305527)
(22.1161846482 0.615968976832 0.260380319172)
(22.0649265925 0.552392077137 0.28378738204)
(21.9999248017 0.484118249711 0.289880860477)
(21.9217442011 0.403399766008 0.297116077881)
(21.8486433879 0.34340217452 0.276721751721)
(21.7465185952 0.266675813899 0.24832760481)
(22.3244367588 0.897838608732 0.0374046177155)
(22.3082656324 0.872247863894 0.122918387208)
(22.291135471 0.83703214639 0.191497497186)
(22.2723052505 0.794791374752 0.255724344538)
(22.2490185754 0.742187483564 0.31373859563)
(22.2093554757 0.674092188586 0.354961967669)
(22.1527460762 0.594623356377 0.378710236583)
(22.0922249497 0.520658776703 0.38340830938)
(22.001521315 0.436052605502 0.365727805022)
(21.9286650468 0.360860770695 0.348886733346)
(12.6748840449 -0.928939100243 -1.02070924213)
(12.7584405941 -0.84840585685 -1.08486521209)
(12.8284747343 -0.773404767883 -1.13512959114)
(12.9440592743 -0.674625407922 -1.19034491364)
(12.9635334478 -0.568297807294 -1.2428949509)
(13.100354941 -0.471825890558 -1.27689604227)
(13.2409243201 -0.377493192592 -1.30139051883)
(13.279977928 -0.268140372256 -1.32564581535)
(13.2811846914 -0.160999837075 -1.34205868008)
(13.2827483058 -0.0561821835883 -1.35009428386)
(15.6906873806 -0.791888213844 -0.860202630763)
(15.9187038507 -0.708520305144 -0.899808605861)
(16.1681940938 -0.626314477459 -0.926101298408)
(16.360068427 -0.549368239524 -0.947239162651)
(16.526057692 -0.462649937267 -0.968837260668)
(16.7402839885 -0.376147507363 -0.977281235633)
(16.9109964557 -0.288413169547 -0.983522234414)
(17.0345111788 -0.20358873298 -0.987229073058)
(17.1613086096 -0.113556998413 -0.984504316831)
(17.1819832438 -0.0404116990589 -0.986238930495)
(17.939997061 -0.592805933871 -0.634931511461)
(18.2399524453 -0.51082077303 -0.637643450459)
(18.4959035795 -0.439706517309 -0.631469126238)
(18.6843304237 -0.366113942844 -0.633131765095)
(18.8933054249 -0.298383430078 -0.620817468669)
(19.0704270816 -0.230614686548 -0.608899465008)
(19.1828601525 -0.172177773706 -0.600872158216)
(19.3112223964 -0.123836924015 -0.58285088956)
(19.3609048355 -0.0741045554332 -0.577712984994)
(19.4431023903 -0.0240733479941 -0.562955668707)
(19.4232453676 -0.38968773468 -0.414155522235)
(19.6633535278 -0.31664723345 -0.397284502006)
(19.8889152249 -0.252008484816 -0.370294217792)
(20.0419412874 -0.204876851256 -0.346935037954)
(20.1658346008 -0.157602516937 -0.328167242906)
(20.3100189024 -0.114349935511 -0.298358551935)
(20.405159102 -0.0813016578126 -0.275839705858)
(20.4796621595 -0.0577149151593 -0.255044022676)
(20.5384568753 -0.0381919091675 -0.237128430936)
(20.591897303 -0.00891937992009 -0.221361349743)
(20.3428704275 -0.214378920777 -0.223952136632)
(20.5085189514 -0.158772360676 -0.195832783903)
(20.6596361516 -0.110935298343 -0.161973716432)
(20.7764831431 -0.0758742809891 -0.128655932393)
(20.8723930123 -0.0487236531339 -0.0969836128334)
(20.9661810209 -0.0238144046649 -0.0638982819108)
(21.0371698114 -0.0125685698595 -0.0333817960172)
(21.0978217097 -0.0025862785992 -0.00690336279776)
(21.1491444167 -0.00150828171571 0.0172537271612)
(21.1793043043 -0.00251688931806 0.0318065855978)
(20.8755010399 -0.0787134694529 -0.0769814526797)
(21.0148434158 -0.0305984510077 -0.0370834264967)
(21.1447101164 0.00635061624023 0.0108917768404)
(21.2326254138 0.0301092186216 0.050478041521)
(21.316836114 0.0375043120007 0.0973673983608)
(21.380713934 0.0527412063894 0.130434556679)
(21.4511253721 0.0559324307901 0.17120737773)
(21.4986096734 0.0432597105137 0.204183801373)
(21.536676424 0.0307533304213 0.229856055955)
(21.5664133683 0.00461311316416 0.24960548782)
(21.2459712131 0.0368007130656 0.0519278254441)
(21.362860147 0.0792564139872 0.0996455119854)
(21.4665368542 0.110165211669 0.152005575633)
(21.5502223959 0.12358119923 0.205779582202)
(21.6353690168 0.124631101096 0.265581319278)
(21.6956756926 0.12308544141 0.311079197532)
(21.7471137542 0.107014474532 0.355689070369)
(21.7918969801 0.0927611736687 0.392788105756)
(21.8233075076 0.0554376006094 0.423430346445)
(21.8529871841 0.0187644809767 0.4474149941)
(21.5158035231 0.141431369338 0.162439434158)
(21.6313707536 0.183586401453 0.22289364314)
(21.7214458541 0.196699553666 0.291191950871)
(21.8122541257 0.214454480253 0.355671410861)
(21.8673638203 0.199227617704 0.41420282202)
(21.9258167865 0.18458656163 0.471083368084)
(21.9837298961 0.171998630023 0.524512606098)
(22.0160261201 0.121551226135 0.568257241953)
(22.0473538692 0.0802929272816 0.603209880666)
(22.0642246542 0.0265473081773 0.622960361457)
(21.7503635405 0.246378809267 0.271390957574)
(21.8383243842 0.275625414902 0.337093142596)
(21.9229501135 0.29341392555 0.408037528514)
(21.9982333473 0.292062861145 0.48313059371)
(22.0665686096 0.278215744845 0.557824037535)
(22.1181958678 0.254312896397 0.621091052776)
(22.157420008 0.218966221166 0.675265538411)
(22.1793752499 0.160742741293 0.717128359012)
(22.2024730053 0.103206311353 0.752798652085)
(22.2297971687 0.028263924531 0.784735488989)
(21.9291556865 0.33799652084 0.371636765879)
(22.0158800583 0.371652800366 0.444163816864)
(22.0867385756 0.374579051149 0.523829781838)
(22.1475887548 0.370621515526 0.596602688716)
(22.2043223763 0.350378425133 0.673102519223)
(22.2428930316 0.305542460942 0.740788883035)
(22.286590581 0.262639123628 0.807040050069)
(22.3011982823 0.191959873825 0.848360473629)
(22.316271783 0.116392168763 0.882958228008)
(22.3275571226 0.0380258656716 0.903568534648)
(8.52109997714 -1.38872036059 -0.0469238899145)
(8.52385241111 -1.37943006054 -0.161168898379)
(8.66508454647 -1.36773814974 -0.270484922855)
(8.73766152985 -1.3412117548 -0.390475939346)
(8.85444671585 -1.3139546073 -0.48541538289)
(8.95304097863 -1.27308803302 -0.591313763529)
(9.0254586546 -1.22543566358 -0.688660636759)
(9.06763821046 -1.16802260631 -0.783577083107)
(9.15360038752 -1.10549346709 -0.872492945793)
(9.29140407566 -1.03192403128 -0.962777370854)
(4.60342520573 -1.10220973263 -0.0434700380168)
(4.652547787 -1.10059194232 -0.133135957834)
(4.87852225113 -1.11130676374 -0.229783322283)
(5.01423975321 -1.10562956675 -0.314213259286)
(5.16016335346 -1.0925662046 -0.403947189774)
(5.26982927393 -1.06663144535 -0.493436742777)
(5.48935244062 -1.03817851623 -0.595563628552)
(5.68250018062 -1.00576307038 -0.681042771731)
(5.9358733453 -0.968589414375 -0.769340454324)
(6.1183010849 -0.92248772046 -0.845305909096)
(2.15428668767 -0.725885603852 -0.0274581774997)
(2.27230709672 -0.744388326881 -0.0917696870098)
(2.35733054296 -0.75047392656 -0.155815614066)
(2.45878141092 -0.753786540139 -0.222116096808)
(2.5817805753 -0.756712181189 -0.283976278943)
(2.76178073652 -0.759837581555 -0.358186692741)
(2.93144322803 -0.754183874208 -0.431884406953)
(3.18564527519 -0.751274452206 -0.514215013502)
(3.44749898374 -0.742262211831 -0.59387749449)
(3.68998394947 -0.724280563119 -0.668113890377)
(1.03649543197 -0.460702082296 -0.0167928923925)
(1.09177090637 -0.472934708746 -0.0592047539944)
(1.15214402534 -0.482713572583 -0.102312719985)
(1.22042589425 -0.491326540858 -0.143388465756)
(1.28855683365 -0.494205389235 -0.190261525132)
(1.39997599861 -0.503079573258 -0.241219152533)
(1.54898822664 -0.514004421256 -0.29774686963)
(1.72105476364 -0.521350994992 -0.36089519843)
(1.91890149862 -0.52866120007 -0.42374654798)
(2.16254736196 -0.533221351038 -0.49529074139)
(0.549169372995 -0.302618638289 -0.013369211797)
(0.577461592815 -0.310725596431 -0.0411438232203)
(0.605291384303 -0.316665834842 -0.0663978553291)
(0.651588775946 -0.326206471359 -0.0955939449461)
(0.709300732198 -0.334793304965 -0.131483710501)
(0.772425761966 -0.342404073951 -0.166172857808)
(0.86537424781 -0.355102164361 -0.20500268914)
(0.976162409771 -0.366363411985 -0.249793487056)
(1.09244434784 -0.371729110782 -0.298184540282)
(1.28495179041 -0.387665263134 -0.359065304843)
(0.317977830669 -0.206860408581 -0.00931619242537)
(0.329153601879 -0.210380912152 -0.0277086830679)
(0.351488708235 -0.217390304766 -0.046588780238)
(0.382132538491 -0.225425764015 -0.0692401602192)
(0.415796788885 -0.23259570024 -0.092026186989)
(0.455237269267 -0.238999797239 -0.117383705864)
(0.512274484084 -0.248766480487 -0.146721168473)
(0.587654338558 -0.260098795118 -0.181327392733)
(0.673190589069 -0.27140697656 -0.216775670398)
(0.784117025668 -0.282789438758 -0.260270682424)
(0.180497089509 -0.137119122138 -0.00471340414879)
(0.189375924783 -0.140881798935 -0.0184423156912)
(0.204862139346 -0.147235769649 -0.0316294932142)
(0.224330851591 -0.153862518914 -0.0470777328411)
(0.250647036575 -0.161822977208 -0.0652108763083)
(0.277541775007 -0.168327025833 -0.0832261016485)
(0.317851384763 -0.177494573108 -0.106321738424)
(0.367364313083 -0.188096816621 -0.131111141759)
(0.430672811278 -0.198758540346 -0.161612290916)
(0.510536695182 -0.211170812558 -0.19611012144)
(0.09864138857 -0.0870152810516 -0.00323510462058)
(0.104695996661 -0.0902217385501 -0.0123598088499)
(0.116214265451 -0.0961264031146 -0.0219558700091)
(0.12819610665 -0.101333511717 -0.0317181253064)
(0.145070712496 -0.108322363664 -0.0427714113108)
(0.171727396851 -0.118051877204 -0.0594358280887)
(0.198899293658 -0.127060844348 -0.0746141682412)
(0.238089303585 -0.138456244555 -0.0953020317702)
(0.283954956839 -0.149178927261 -0.119107519025)
(0.338810495255 -0.158470145224 -0.147501850531)
(0.0511908223613 -0.0525436673296 -0.00240757207923)
(0.0570904403014 -0.0567214120014 -0.00772558446956)
(0.0633360482601 -0.0605890884819 -0.0132002363649)
(0.0733264967646 -0.0662329064128 -0.0208366455317)
(0.0850922448443 -0.0720295841657 -0.0294862416857)
(0.0993604954818 -0.0781309344851 -0.0394866036185)
(0.12071483905 -0.0865712482057 -0.0528849378504)
(0.146611795969 -0.0957007477685 -0.0680372580208)
(0.181393822863 -0.105976316996 -0.0876134757723)
(0.225859090098 -0.118524146121 -0.109949761522)
(0.0273573438475 -0.0322886894403 -0.00174670871619)
(0.0304827479944 -0.0349312072967 -0.00461687542387)
(0.0342852672654 -0.0375778450234 -0.00889689162136)
(0.0390307914251 -0.0407665594361 -0.0126478066576)
(0.048111930882 -0.0463960737093 -0.0192551068744)
(0.0584529705826 -0.0521144448314 -0.0262886310465)
(0.0723740964295 -0.0592206919243 -0.0350118861378)
(0.0930734965565 -0.0684304246407 -0.0477584775792)
(0.118576077606 -0.0780211382212 -0.0630766912525)
(0.150621458207 -0.0878513937821 -0.0818212592869)
(9.26968611379 -0.961982913454 -1.03136439764)
(9.05584486414 -0.877612024672 -1.09662301651)
(9.00394810131 -0.783139048027 -1.16429911256)
(8.97932364947 -0.690843405397 -1.22064814599)
(8.8821194619 -0.583155604007 -1.27282061032)
(8.82198164772 -0.488662993223 -1.31064220495)
(8.68371809259 -0.387683104419 -1.3390690858)
(8.61453401381 -0.277329775101 -1.36375868207)
(8.64446795687 -0.169738309086 -1.38280466487)
(8.62375327338 -0.0580422634326 -1.39191198798)
(6.1551285639 -0.845705634236 -0.926383085972)
(5.91719895371 -0.766265030532 -0.968832032504)
(5.68493854154 -0.676609595382 -1.00920783059)
(5.5558731067 -0.593207338558 -1.04741534718)
(5.35512000845 -0.500624546292 -1.07292326461)
(5.11533695376 -0.396913328902 -1.08936345897)
(4.93635454359 -0.317364931356 -1.09566639195)
(4.74284152099 -0.22511936398 -1.09606350681)
(4.66311090778 -0.134087659413 -1.10205935461)
(4.51847859783 -0.0376844737353 -1.09273971669)
(3.73773674466 -0.677654086914 -0.724506137156)
(3.42179700313 -0.585846166071 -0.743202076278)
(3.13788804664 -0.50517254157 -0.748253061153)
(2.95713269016 -0.438860892167 -0.755886739437)
(2.8055748159 -0.366313544906 -0.765332255799)
(2.62970355775 -0.291381275883 -0.763600854624)
(2.47366945155 -0.220155586886 -0.757320401411)
(2.34525244187 -0.15409374613 -0.748562452265)
(2.27368096006 -0.0853233619135 -0.745844439359)
(2.1898431541 -0.030634262745 -0.733668235873)
(2.17688622789 -0.502432699365 -0.530434294695)
(1.91959584731 -0.42337218834 -0.529149807683)
(1.7098408191 -0.358601049691 -0.520137739905)
(1.58231152138 -0.302544597045 -0.521211676242)
(1.44017952615 -0.246158235209 -0.511945970042)
(1.31750079723 -0.192167885918 -0.501475166885)
(1.20157195582 -0.142829964205 -0.486049271148)
(1.12808234721 -0.0996079279536 -0.476398854264)
(1.08360467413 -0.0604364791027 -0.470469524786)
(1.04554524567 -0.0181510324459 -0.4633272881)
(1.29236945604 -0.360460377394 -0.389251760122)
(1.09860170134 -0.299848600596 -0.37264034658)
(0.962267636688 -0.251148788363 -0.360521117025)
(0.859087283361 -0.204621798118 -0.353218254414)
(0.775834519445 -0.166729997547 -0.343550405383)
(0.706288520653 -0.130570390591 -0.33415359607)
(0.650040275991 -0.0983726974472 -0.324902646934)
(0.60900538697 -0.0678685345916 -0.317821105713)
(0.582274731666 -0.0415953462126 -0.312553047819)
(0.555172367802 -0.0129686326584 -0.305041941933)
(0.783618700956 -0.261324677238 -0.281537801539)
(0.663812214004 -0.216089646024 -0.26775009535)
(0.582671719712 -0.179208621629 -0.259373639428)
(0.514552840976 -0.146825539366 -0.24988788281)
(0.455614644166 -0.11807261549 -0.238945614513)
(0.418305263923 -0.0932764915358 -0.233307436543)
(0.380853774681 -0.0678280344213 -0.225315656722)
(0.351968413714 -0.0463735090167 -0.217729519877)
(0.330372045584 -0.0273731796411 -0.211133031932)
(0.316135251722 -0.00950759963205 -0.206094922226)
(0.516155475211 -0.197136785498 -0.21322089686)
(0.426107812613 -0.159643757026 -0.197951308588)
(0.374230486607 -0.133120209816 -0.190546804939)
(0.322765690259 -0.106159189973 -0.180382208436)
(0.281987073758 -0.0824474346296 -0.171214188917)
(0.248838878993 -0.0632913783264 -0.16175388677)
(0.223058060651 -0.0474836587458 -0.153230725751)
(0.205886530207 -0.0340300246114 -0.147400921023)
(0.189189000406 -0.0185966031794 -0.14087876404)
(0.1790968773 -0.00545160192188 -0.136347119953)
(0.341414039566 -0.148455326619 -0.159274006146)
(0.280031641368 -0.118798676059 -0.14690099325)
(0.23475216737 -0.0962227141166 -0.135693183318)
(0.195891451647 -0.0750663040669 -0.124807318255)
(0.167729606137 -0.0581093692304 -0.11611702317)
(0.146383333402 -0.0455955343937 -0.108083119887)
(0.128443304159 -0.0317333943674 -0.101523176846)
(0.117792317368 -0.0212185790102 -0.0973726328276)
(0.107108154345 -0.0127223853929 -0.0918218001143)
(0.0979443387873 -0.00362997633185 -0.0864753141315)
(0.225809224092 -0.110217140476 -0.118244882525)
(0.183497205132 -0.0885678536524 -0.106888188657)
(0.148751733447 -0.0676602160528 -0.097588952499)
(0.123168146625 -0.0525036808496 -0.0887573020572)
(0.101850762004 -0.0398034982989 -0.0799266177753)
(0.0852594385095 -0.0290936160623 -0.0723388428253)
(0.0731994919299 -0.0214755740924 -0.0659556343363)
(0.0620963490641 -0.0130921351026 -0.059641441114)
(0.0567319903173 -0.00756790825884 -0.0564744450181)
(0.0526732112037 -0.00258146404062 -0.0537350236922)
(0.152781332039 -0.0829151887177 -0.0886200209391)
(0.117078234829 -0.0630901868 -0.0766101932382)
(0.0922846558862 -0.0480274988466 -0.0675666967538)
(0.0710989005481 -0.0354874767265 -0.0578505465779)
(0.056547507383 -0.0257746322652 -0.0507451278518)
(0.0473263993593 -0.0192385259662 -0.0457484173744)
(0.0399694971233 -0.0131749980524 -0.0414641296541)
(0.0334498379047 -0.0082896291773 -0.0369294971657)
(0.0301525301177 -0.00487049092436 -0.0345673057369)
(0.0273238077 -0.00167169550318 -0.0322465975878)
(0.0141799421898 -0.0191731669029 -0.000783422782283)
(0.00776433226842 -0.0117348498382 -0.000811177765162)
(0.00468454399926 -0.0076110662653 -0.000603570757025)
(0.00287298662181 -0.00472004675624 -0.000360701392113)
(0.00196448105627 -0.00297043656175 -0.00022528521671)
(0.00152194320319 -0.00188724006197 -0.000212330595486)
(0.0013142877324 -0.00120086276036 -0.00017026235156)
(0.00121271445281 -0.000720419417674 -0.000135094610911)
(0.0011764680139 -0.000393196451454 -0.000106363824384)
(0.00116650955776 -0.000131473994532 -0.000122066998766)
(0.0155998929572 -0.0204719489477 -0.00302866442895)
(0.00868749496967 -0.0127372837786 -0.00220559661359)
(0.00497687971739 -0.00790567636247 -0.00150407903081)
(0.00310236948928 -0.00502685982176 -0.00107767818609)
(0.00212866993687 -0.00323392197474 -0.000853218016971)
(0.0015989525198 -0.00202369403071 -0.000674937285658)
(0.00134529803978 -0.00125381031934 -0.00052578703252)
(0.00123068584115 -0.000751423519257 -0.000454543619771)
(0.00118597241494 -0.000405242062656 -0.000410848302759)
(0.00117369773941 -0.000117002159795 -0.00039588446087)
(0.0178190343823 -0.0223743631792 -0.00533429130823)
(0.0101760751082 -0.0141353246825 -0.00411460969116)
(0.00595934979754 -0.0089980384964 -0.00284831919536)
(0.00371301418717 -0.00579983484289 -0.00207691608479)
(0.00238087599743 -0.00351262301909 -0.00156395762605)
(0.00178134506401 -0.00227724849957 -0.00124933095205)
(0.00146705255694 -0.00143968211322 -0.0010431472698)
(0.00130084176119 -0.000849127536002 -0.000877279427995)
(0.00123239957138 -0.00046068352625 -0.000779058473075)
(0.00120038424685 -0.000133190311395 -0.000710555811084)
(0.0217514442972 -0.0254808902767 -0.00875990987098)
(0.0121398008221 -0.0157813765665 -0.00623927691414)
(0.00719745924494 -0.0100894550508 -0.00455671226196)
(0.00452451686974 -0.00661540731647 -0.00333645088479)
(0.0028896751165 -0.00405840377068 -0.00253218392503)
(0.00212881939831 -0.00265673158042 -0.00205747671893)
(0.0017044362976 -0.00170198843319 -0.0017094137711)
(0.00145148014935 -0.000991799068472 -0.00141238442021)
(0.00134258991009 -0.000548011402741 -0.00124873405085)
(0.00131158160556 -0.000166907299222 -0.00122517673196)
(0.0259227496559 -0.0282551558671 -0.0125004040526)
(0.0151410665974 -0.0180718420328 -0.00912497420528)
(0.00920389790082 -0.011775261503 -0.00674630065971)
(0.00578503955025 -0.00764260388794 -0.0051078761816)
(0.00377957087619 -0.0048456148887 -0.00395513052303)
(0.00272329460391 -0.00323036386388 -0.00311818801241)
(0.00207214653495 -0.0019934479783 -0.00254849129128)
(0.0017997501037 -0.00127356040088 -0.00230305227362)
(0.00161280295948 -0.000651367289507 -0.00206366810436)
(0.00152939304738 -0.000220705223378 -0.00191839923082)
(0.0325902156089 -0.0323320670465 -0.017856915839)
(0.0198912354251 -0.021360400688 -0.0132345566894)
(0.0124137619768 -0.0142802934665 -0.00977564223621)
(0.00805587491045 -0.0094238719016 -0.00771180007398)
(0.00541602639796 -0.00614357521145 -0.00612430110242)
(0.00383623183778 -0.00399214913345 -0.00494292018439)
(0.00297328946308 -0.00265329423291 -0.00416428959869)
(0.00237271998115 -0.00153973582106 -0.00350123107146)
(0.00211498954241 -0.000872940455657 -0.00319300686138)
(0.0019655138865 -0.000277129926386 -0.0029677184927)
(0.0423680475182 -0.0379558060309 -0.0247726499749)
(0.025994649018 -0.0248989468502 -0.0184870215334)
(0.0172995942276 -0.0172752705539 -0.0144791258577)
(0.0115127276432 -0.0115838709982 -0.0114481974258)
(0.00768903684587 -0.00755360471874 -0.00890974510426)
(0.00567514108697 -0.00501260313702 -0.00750998793983)
(0.00443789958949 -0.00343296954838 -0.00641487143835)
(0.00364281440099 -0.00214228174717 -0.00565351412829)
(0.00318346764421 -0.00117125705816 -0.00515138659848)
(0.0029495783985 -0.000279197561077 -0.00487340059164)
(0.0530310311755 -0.0430346478412 -0.0324121573472)
(0.0364183825531 -0.0304873126887 -0.0265640183006)
(0.0247815687914 -0.0210741138403 -0.0212713397147)
(0.0164932422033 -0.0140047550101 -0.0165469924848)
(0.0122021890178 -0.00985510337792 -0.0138980556604)
(0.00909635910293 -0.00674458965602 -0.0116029885973)
(0.0069946475166 -0.00445840964559 -0.00981507947165)
(0.00578565824852 -0.00274339297317 -0.00876273492547)
(0.00508197762877 -0.00167498239979 -0.00802376758741)
(0.00449156580464 -0.000489553881699 -0.00729282398295)
(0.074781200935 -0.0525043129206 -0.0467228338189)
(0.0492593714703 -0.0360771346295 -0.0361510430611)
(0.0359735594069 -0.0262368718856 -0.0302377653738)
(0.0260937017499 -0.0185993042776 -0.0249610334834)
(0.0201879440926 -0.0133864607751 -0.0216655747254)
(0.0152950335267 -0.00912681650027 -0.0182503355922)
(0.0121612776567 -0.00618393406878 -0.0158176614054)
(0.0100395842286 -0.00395882867845 -0.0139904502251)
(0.00874747026214 -0.00213935976805 -0.0128234804414)
(0.0082597303345 -0.000880766930305 -0.0123662554833)
(0.100634483314 -0.0622791660266 -0.0624298993155)
(0.0727032732771 -0.0450775755912 -0.0519446649176)
(0.054790421791 -0.0336595278354 -0.0439091211995)
(0.0423589668541 -0.0248937429425 -0.0379086537133)
(0.0324456158709 -0.0178976408745 -0.0321832279418)
(0.0248758399597 -0.0120244807593 -0.027344391713)