/*--------------------------------*- C++ -*----------------------------------*\
  =========                 |
  \\      /  F ield         | OpenFOAM: The Open Source CFD Toolbox
   \\    /   O peration     | Website:  https://openfoam.org
    \\  /    A nd           | Version:  6
     \\/     M anipulation  |
\*---------------------------------------------------------------------------*/
FoamFile
{
    version     2.0;
    format      ascii;
    class       volScalarField;
    location    "0.00974051494";
    object      rho;
}
// * * * * * * * * * * * * * * * * * * * * * * * * * * * * * * * * * * * * * //

dimensions      [1 -3 0 0 0 0 0];

internalField   nonuniform List<scalar> 
101600
(
8.9207073735e-08
8.92022387222e-08
8.91699628485e-08
8.9075707737e-08
8.89387160861e-08
8.87982174067e-08
8.86672683959e-08
8.85334487359e-08
8.83642235721e-08
8.82028065428e-08
8.91741256867e-08
8.9152088489e-08
8.91137738516e-08
8.90209027819e-08
8.88883758441e-08
8.87493328189e-08
8.86141901562e-08
8.84660472145e-08
8.82817397819e-08
8.81122114324e-08
8.91078444715e-08
8.90737962616e-08
8.90334060518e-08
8.8952914827e-08
8.8838152981e-08
8.87082759392e-08
8.85628148843e-08
8.83928652642e-08
8.81982507504e-08
8.80365715585e-08
8.9021564638e-08
8.8986150616e-08
8.89466492699e-08
8.88708783794e-08
8.87644696209e-08
8.8639442683e-08
8.84875945958e-08
8.83105647101e-08
8.81171707841e-08
8.79620871155e-08
8.89268799729e-08
8.88960502419e-08
8.88544095822e-08
8.87723084658e-08
8.86585204121e-08
8.85290016291e-08
8.83802851442e-08
8.82137985492e-08
8.80344018576e-08
8.7885026014e-08
8.88270786521e-08
8.87959344059e-08
8.87449692115e-08
8.8654342478e-08
8.8532364286e-08
8.84011373821e-08
8.82625127885e-08
8.81128766546e-08
8.79538752079e-08
8.78124115355e-08
8.87116644533e-08
8.867070605e-08
8.86022343112e-08
8.85029173334e-08
8.83852782568e-08
8.82674934334e-08
8.81462974877e-08
8.80175812257e-08
8.78839170126e-08
8.77579718349e-08
8.85655220343e-08
8.85068983185e-08
8.84203101272e-08
8.83150805875e-08
8.82096368241e-08
8.81161821051e-08
8.80265057247e-08
8.79279547109e-08
8.78205675415e-08
8.771333276e-08
8.8380845184e-08
8.83094120022e-08
8.82164754972e-08
8.81143826414e-08
8.80272066623e-08
8.79597007807e-08
8.79004134395e-08
8.78336660127e-08
8.77556588463e-08
8.76681384843e-08
8.82096323004e-08
8.81282875181e-08
8.80425161104e-08
8.7950693935e-08
8.78779976657e-08
8.78257860946e-08
8.77797234368e-08
8.77290119543e-08
8.76729707152e-08
8.7599259542e-08
9.01335605483e-08
9.01259745736e-08
9.0077448721e-08
8.99602625871e-08
8.97984595253e-08
8.96320260407e-08
8.94710273476e-08
8.93010882832e-08
8.90896048126e-08
8.8894390357e-08
9.00866900272e-08
9.00653750783e-08
9.00104575187e-08
8.98893799602e-08
8.97282386085e-08
8.95664193612e-08
8.94034843324e-08
8.92162746044e-08
8.89895743868e-08
8.87868938954e-08
9.00028709197e-08
8.99697682761e-08
8.99074757729e-08
8.97914966037e-08
8.96470611097e-08
8.94969966082e-08
8.93240077951e-08
8.91160222898e-08
8.88843878216e-08
8.86925071304e-08
8.98971780117e-08
8.98594009069e-08
8.979258269e-08
8.96777727161e-08
8.95421590277e-08
8.93959075997e-08
8.92163806624e-08
8.90053266329e-08
8.87786207537e-08
8.85939807114e-08
8.97818440077e-08
8.97455701426e-08
8.96790749202e-08
8.95629995003e-08
8.94199611898e-08
8.92638677189e-08
8.90844394977e-08
8.88833992428e-08
8.86701688965e-08
8.84914352516e-08
8.96565624696e-08
8.9617973609e-08
8.95505146746e-08
8.94364969264e-08
8.92869895427e-08
8.91243122535e-08
8.8949710439e-08
8.87610475015e-08
8.85667593256e-08
8.83973193999e-08
8.95066935533e-08
8.945493514e-08
8.93752697637e-08
8.92613056798e-08
8.91194697338e-08
8.89690556087e-08
8.88115290098e-08
8.86454002326e-08
8.8478509381e-08
8.8326468889e-08
8.93217905965e-08
8.92482232131e-08
8.91497597979e-08
8.90323874985e-08
8.89046722248e-08
8.8780225453e-08
8.86600156276e-08
8.85336617922e-08
8.84004232078e-08
8.82699683902e-08
8.90965804644e-08
8.90088134373e-08
8.89011143415e-08
8.87851424542e-08
8.86776242416e-08
8.85836594191e-08
8.8501244633e-08
8.84172032844e-08
8.8323227469e-08
8.82170325365e-08
8.88912875342e-08
8.87917509418e-08
8.86891893025e-08
8.85828599847e-08
8.84947295187e-08
8.84218741623e-08
8.83557113898e-08
8.82913530503e-08
8.82258475215e-08
8.81362034709e-08
9.14481631014e-08
9.14289772362e-08
9.13558043006e-08
9.1216287593e-08
9.10340060766e-08
9.08377083998e-08
9.06315940374e-08
9.04072575838e-08
9.01401946464e-08
8.9902849889e-08
9.13790987675e-08
9.13466969305e-08
9.12657417548e-08
9.11194089257e-08
9.09366818486e-08
9.0749148855e-08
9.05443644834e-08
9.03023093639e-08
9.00215682045e-08
8.97744590128e-08
9.1274207508e-08
9.12287197839e-08
9.11335666772e-08
9.09816135244e-08
9.08094535287e-08
9.06342068596e-08
9.04239979684e-08
9.01685481171e-08
8.98897653762e-08
8.96541384608e-08
9.11495119912e-08
9.10964407089e-08
9.09907496016e-08
9.08327176585e-08
9.06638339678e-08
9.04884921722e-08
9.02733646756e-08
9.00209605122e-08
8.97506655812e-08
8.95235565861e-08
9.10126028457e-08
9.09591514525e-08
9.08565290255e-08
9.0700056995e-08
9.0521079738e-08
9.03285818112e-08
9.01080211979e-08
8.9862607248e-08
8.96058325107e-08
8.93892525905e-08
9.08516430444e-08
9.07954735178e-08
9.07018916692e-08
9.05579228831e-08
9.03737498511e-08
9.01678229624e-08
8.99437466327e-08
8.97048067685e-08
8.94678202287e-08
8.92670605059e-08
9.06502132766e-08
9.05804697261e-08
9.04843890288e-08
9.03514692552e-08
9.0177246409e-08
8.99794538317e-08
8.97697696458e-08
8.95556601036e-08
8.93506759447e-08
8.91721314473e-08
9.04139265426e-08
9.03206484065e-08
9.02078665354e-08
9.00753005942e-08
8.99156140305e-08
8.97440527426e-08
8.95773145418e-08
8.94138006603e-08
8.92518397871e-08
8.90982883038e-08
9.01416024064e-08
9.00314143944e-08
8.99041224636e-08
8.97693684345e-08
8.96320107164e-08
8.94984963292e-08
8.93806663428e-08
8.92721594737e-08
8.91606068922e-08
8.903591475e-08
8.98966697055e-08
8.97693807681e-08
8.96424053558e-08
8.95152134809e-08
8.9402768965e-08
8.92988007746e-08
8.92045919038e-08
8.91230275556e-08
8.90476922787e-08
8.89404471003e-08
9.33609628779e-08
9.33109010723e-08
9.31995217927e-08
9.30350180646e-08
9.28339357487e-08
9.2600508992e-08
9.23301428628e-08
9.20308448608e-08
9.16942656501e-08
9.14036257926e-08
9.32577478335e-08
9.31908145085e-08
9.30697108435e-08
9.29008873891e-08
9.27032701689e-08
9.24825879963e-08
9.22174451586e-08
9.19034178781e-08
9.15545887537e-08
9.12461326379e-08
9.31244333814e-08
9.30418883553e-08
9.29023420787e-08
9.27193072554e-08
9.25222567033e-08
9.2310104396e-08
9.20468283684e-08
9.17308133038e-08
9.13885544397e-08
9.10884595917e-08
9.29782334685e-08
9.28871523992e-08
9.27335277397e-08
9.25360836062e-08
9.23308008496e-08
9.2110883194e-08
9.18442120064e-08
9.15369816423e-08
9.12055850563e-08
9.09164757086e-08
9.28132101846e-08
9.27231274985e-08
9.2573249328e-08
9.23747141903e-08
9.21538971419e-08
9.1909755315e-08
9.16312842941e-08
9.13273489185e-08
9.10129634842e-08
9.07455296748e-08
9.26003432107e-08
9.25113857731e-08
9.23768602697e-08
9.21937802387e-08
9.19668973651e-08
9.17040094256e-08
9.14152040178e-08
9.11147513219e-08
9.08269586656e-08
9.05892432127e-08
9.23290367e-08
9.22320329617e-08
9.21052870928e-08
9.19394970352e-08
9.17211167642e-08
9.14613953333e-08
9.11842850778e-08
9.09129297475e-08
9.06662411709e-08
9.04601789523e-08
9.20301738782e-08
9.19116034092e-08
9.17723278897e-08
9.16095070168e-08
9.14031919352e-08
9.11683714863e-08
9.09378383419e-08
9.07263781642e-08
9.05336333799e-08
9.0357924559e-08
9.17034849801e-08
9.15631108056e-08
9.14033424176e-08
9.12344626565e-08
9.10522486196e-08
9.08643797219e-08
9.0695052098e-08
9.05500269438e-08
9.04178784202e-08
9.02762054216e-08
9.14096098053e-08
9.12412179627e-08
9.10758083609e-08
9.091291523e-08
9.07610670216e-08
9.06129866606e-08
9.0480009602e-08
9.03727817307e-08
9.02832997304e-08
9.01559420888e-08
9.61823225713e-08
9.6077265086e-08
9.59117239128e-08
9.57089481533e-08
9.54738750285e-08
9.51843468063e-08
9.48294429982e-08
9.44392299322e-08
9.40193279386e-08
9.36588836691e-08
9.60362183471e-08
9.59113553612e-08
9.5736166815e-08
9.55366795963e-08
9.53125065683e-08
9.50366714413e-08
9.4688023248e-08
9.42852664244e-08
9.38498830063e-08
9.34569475808e-08
9.5862022221e-08
9.57214357066e-08
9.55318854334e-08
9.53201039591e-08
9.50888037222e-08
9.48124284323e-08
9.44674319515e-08
9.40680007874e-08
9.36363048688e-08
9.32458360388e-08
9.56778392445e-08
9.55306473343e-08
9.53295888284e-08
9.5101433611e-08
9.48521057391e-08
9.45593181901e-08
9.4208988938e-08
9.38190805115e-08
9.339832832e-08
9.30219882817e-08
9.5461529913e-08
9.53195749629e-08
9.51183022149e-08
9.48809196719e-08
9.46122542957e-08
9.42957246544e-08
9.39335453745e-08
9.35476672513e-08
9.31524196079e-08
9.28114744009e-08
9.51752533763e-08
9.50426612472e-08
9.48515296494e-08
9.46168166075e-08
9.43384858438e-08
9.40082965098e-08
9.36424903641e-08
9.3268073966e-08
9.29134489003e-08
9.26184054834e-08
9.48229145802e-08
9.46928649413e-08
9.45104105056e-08
9.42834289392e-08
9.40063960077e-08
9.36801792702e-08
9.33311637361e-08
9.29963575078e-08
9.26975204134e-08
9.24460985559e-08
9.44527394813e-08
9.43041154688e-08
9.41110774401e-08
9.38849709134e-08
9.36144294569e-08
9.33107137478e-08
9.3009195665e-08
9.27404780113e-08
9.25085559236e-08
9.22971861246e-08
9.40536109267e-08
9.38751995891e-08
9.36602324623e-08
9.34296908838e-08
9.3185235573e-08
9.2933491763e-08
9.2699569801e-08
9.25020853668e-08
9.23387997413e-08
9.2170491341e-08
9.36875516734e-08
9.34646547172e-08
9.32430473436e-08
9.30233624992e-08
9.28156167541e-08
9.26125656793e-08
9.2428070005e-08
9.22774504388e-08
9.21581732253e-08
9.19987858489e-08
1.00297626678e-07
1.00125018484e-07
9.98958821393e-08
9.96294428213e-08
9.93173299756e-08
9.89302057701e-08
9.84651233537e-08
9.79681923915e-08
9.74405267602e-08
9.6977759397e-08
1.00111971247e-07
9.99279014409e-08
9.96963134738e-08
9.94412880237e-08
9.914401549e-08
9.87640928334e-08
9.82962205298e-08
9.77782646594e-08
9.72230005734e-08
9.67094728355e-08
9.98810861536e-08
9.96907484851e-08
9.94591650061e-08
9.92060675963e-08
9.89023281547e-08
9.85098302894e-08
9.80329142142e-08
9.75060669724e-08
9.69423256463e-08
9.64264425011e-08
9.96200956843e-08
9.94290168333e-08
9.91948432598e-08
9.89346424668e-08
9.86153169745e-08
9.82044604202e-08
9.77174339021e-08
9.71931966311e-08
9.66367363243e-08
9.61361919995e-08
9.93080378881e-08
9.91247757289e-08
9.88813922493e-08
9.86028686982e-08
9.82687578837e-08
9.78512266005e-08
9.73687012918e-08
9.685855752e-08
9.63366533836e-08
9.58764140203e-08
9.89248178993e-08
9.87555139555e-08
9.85008791072e-08
9.81969445269e-08
9.78499982483e-08
9.74427067172e-08
9.69880784497e-08
9.65144495909e-08
9.60496850526e-08
9.56402887343e-08
9.848702723e-08
9.83249612653e-08
9.80599487927e-08
9.77351071056e-08
9.7379936736e-08
9.69905092461e-08
9.65747377989e-08
9.61633598595e-08
9.57738218376e-08
9.54154163999e-08
9.8028726227e-08
9.78432620887e-08
9.75606442921e-08
9.722934327e-08
9.68762198397e-08
9.65091272631e-08
9.61429374251e-08
9.58050642129e-08
9.55001094474e-08
9.51965434581e-08
9.75125309124e-08
9.72853545043e-08
9.69876991938e-08
9.666452627e-08
9.63430039526e-08
9.6026409625e-08
9.57239739156e-08
9.54553942236e-08
9.52293781488e-08
9.49867940865e-08
9.70242262626e-08
9.67340452444e-08
9.64394955725e-08
9.61433112443e-08
9.58682057888e-08
9.56043562202e-08
9.53547263478e-08
9.51323837235e-08
9.49485925918e-08
9.47185009321e-08
1.06183412372e-07
1.05950397764e-07
1.05655847582e-07
1.05294352787e-07
1.0484454232e-07
1.04297658107e-07
1.03677254169e-07
1.03031246054e-07
1.02333516308e-07
1.01700064139e-07
1.05972897465e-07
1.05754120988e-07
1.05475389812e-07
1.05128861125e-07
1.04685465533e-07
1.04127911641e-07
1.03481517129e-07
1.02790392434e-07
1.02045792464e-07
1.01342716295e-07
1.05670329247e-07
1.05469788433e-07
1.05208908407e-07
1.04876868336e-07
1.04430829653e-07
1.03851116784e-07
1.03173653995e-07
1.0244762672e-07
1.01678374694e-07
1.00971590331e-07
1.05281377823e-07
1.05092910359e-07
1.04838763615e-07
1.04510805774e-07
1.04062417083e-07
1.03475540529e-07
1.02789082549e-07
1.02056538932e-07
1.01286453614e-07
1.00592164269e-07
1.04819083492e-07
1.0463486044e-07
1.04360987122e-07
1.04010287284e-07
1.03560661782e-07
1.02998103518e-07
1.02347749189e-07
1.01645825784e-07
1.00912839788e-07
1.00249917878e-07
1.04306552436e-07
1.04122078851e-07
1.03806838625e-07
1.03406629105e-07
1.02948798094e-07
1.02431457176e-07
1.0185424761e-07
1.01222680967e-07
1.00559814525e-07
9.99375116471e-08
1.03756331385e-07
1.03559134748e-07
1.03198158032e-07
1.02749496896e-07
1.02284028672e-07
1.01809618001e-07
1.01305531698e-07
1.00769281771e-07
1.00204530769e-07
9.96341582825e-08
1.03159731845e-07
1.02916171099e-07
1.02519151768e-07
1.02057720133e-07
1.01599516039e-07
1.01157002191e-07
1.00715889824e-07
1.00272719231e-07
9.9818906779e-08
9.93206273038e-08
1.02450227708e-07
1.02148989314e-07
1.01744359537e-07
1.01307195063e-07
1.00892013157e-07
1.00501916497e-07
1.00124570633e-07
9.97587788814e-08
9.94094840406e-08
9.89998036019e-08
1.01764302442e-07
1.01384404105e-07
1.00998081047e-07
1.00606974391e-07
1.00249383629e-07
9.991185396e-08
9.95804736912e-08
9.92566860745e-08
9.89615999715e-08
9.8591680751e-08
1.14690528395e-07
1.14414669443e-07
1.14041280553e-07
1.13546700663e-07
1.12907945343e-07
1.12143434561e-07
1.11297335581e-07
1.10407839468e-07
1.09420247146e-07
1.08500741473e-07
1.14472151523e-07
1.14244314023e-07
1.13909943629e-07
1.13426573101e-07
1.12770764382e-07
1.11967309493e-07
1.11065225117e-07
1.10100451035e-07
1.09043896999e-07
1.08028723096e-07
1.14090183861e-07
1.13913716403e-07
1.13605981247e-07
1.13127267152e-07
1.12458200787e-07
1.11626001209e-07
1.10680876882e-07
1.0966374473e-07
1.08570360365e-07
1.07549463716e-07
1.13539947112e-07
1.13394559423e-07
1.13094948594e-07
1.12615194003e-07
1.11948702494e-07
1.11125118175e-07
1.10184182895e-07
1.09161410724e-07
1.0805986875e-07
1.07047987058e-07
1.12880428785e-07
1.12729863095e-07
1.12404799262e-07
1.11906498689e-07
1.11252722825e-07
1.10475700821e-07
1.09594343626e-07
1.08613382295e-07
1.0754940039e-07
1.06564274166e-07
1.12172352234e-07
1.11982423081e-07
1.11598036536e-07
1.11060398972e-07
1.10419144896e-07
1.09708528117e-07
1.08921105489e-07
1.08027605305e-07
1.07046196934e-07
1.06100961707e-07
1.11414525338e-07
1.11160011104e-07
1.10702559756e-07
1.10125174509e-07
1.09501755859e-07
1.08858797454e-07
1.08168097371e-07
1.073975239e-07
1.06540331482e-07
1.05655295412e-07
1.10573657201e-07
1.1023088004e-07
1.09714599477e-07
1.09127373497e-07
1.08530479908e-07
1.07945505024e-07
1.07352902787e-07
1.06717404087e-07
1.06009491384e-07
1.0521258282e-07
1.09572741192e-07
1.09152893312e-07
1.08619554686e-07
1.08054692922e-07
1.07511754944e-07
1.07000653559e-07
1.06505762823e-07
1.05995754606e-07
1.05448889756e-07
1.04771423116e-07
1.08605080731e-07
1.08092616248e-07
1.07580735936e-07
1.07061866144e-07
1.0657843768e-07
1.06121508971e-07
1.05675803672e-07
1.05226698224e-07
1.04781252413e-07
1.04195350985e-07
1.27440406768e-07
1.27151003335e-07
1.26659169298e-07
1.25970784665e-07
1.25098488506e-07
1.24070295564e-07
1.22907764329e-07
1.21632405126e-07
1.20183986742e-07
1.18812679599e-07
1.27225960093e-07
1.27003247464e-07
1.26559805272e-07
1.25873574119e-07
1.24960067418e-07
1.23866347954e-07
1.22622489403e-07
1.2124178613e-07
1.19687467045e-07
1.18167112111e-07
1.26765779314e-07
1.26610871992e-07
1.26186747032e-07
1.25476224333e-07
1.24518756821e-07
1.23380924421e-07
1.22091638165e-07
1.20655796635e-07
1.19053017033e-07
1.175180129e-07
1.2605673494e-07
1.259400554e-07
1.25515600741e-07
1.24783735779e-07
1.23809833992e-07
1.22673093207e-07
1.2139371196e-07
1.19962206488e-07
1.18354221635e-07
1.16833165769e-07
1.2515992597e-07
1.25024750983e-07
1.24577305826e-07
1.23839927404e-07
1.22883322136e-07
1.21783001504e-07
1.20552288835e-07
1.19159901974e-07
1.17604986602e-07
1.16135206419e-07
1.24135262922e-07
1.23919548641e-07
1.23421659191e-07
1.22691495571e-07
1.21781360497e-07
1.20745148284e-07
1.19587489685e-07
1.18271757273e-07
1.16823487543e-07
1.1542802242e-07
1.22993047665e-07
1.22657432175e-07
1.22086980546e-07
1.21363628935e-07
1.20517796738e-07
1.1957128701e-07
1.18516911435e-07
1.17339969984e-07
1.16050173307e-07
1.1474317189e-07
1.21739136444e-07
1.21269289685e-07
1.20620922942e-07
1.19896393498e-07
1.19101969678e-07
1.18254076632e-07
1.1735716688e-07
1.16383356183e-07
1.15298736894e-07
1.14096794528e-07
1.20309133826e-07
1.19733876065e-07
1.19034627738e-07
1.18303800113e-07
1.17565808683e-07
1.16834949883e-07
1.16115486268e-07
1.15366138687e-07
1.14534999333e-07
1.13485982166e-07
1.18941350271e-07
1.18242312416e-07
1.17545038587e-07
1.16834018813e-07
1.16145267698e-07
1.15480929387e-07
1.14844932668e-07
1.1421325214e-07
1.13560932764e-07
1.12669568401e-07
1.46897685457e-07
1.46643737427e-07
1.45996705163e-07
1.45032996772e-07
1.43835927125e-07
1.42441606925e-07
1.40825126652e-07
1.38985355919e-07
1.36856229876e-07
1.34779924587e-07
1.46694099261e-07
1.46488715626e-07
1.45872641104e-07
1.44907225779e-07
1.43671628521e-07
1.42205755559e-07
1.40482725543e-07
1.38482822735e-07
1.36164454874e-07
1.3384174847e-07
1.46152286551e-07
1.45986136983e-07
1.45370210807e-07
1.44368925634e-07
1.43068726889e-07
1.41526453527e-07
1.39723899283e-07
1.37634069277e-07
1.35230455944e-07
1.32880684176e-07
1.4528279871e-07
1.45127418243e-07
1.44498541676e-07
1.43468267661e-07
1.42124670255e-07
1.40537249698e-07
1.38704198595e-07
1.36603025868e-07
1.34197469904e-07
1.31879638029e-07
1.44082526005e-07
1.43895387573e-07
1.43247104593e-07
1.42220437239e-07
1.40884029745e-07
1.39297638484e-07
1.37477255347e-07
1.35404756301e-07
1.33084725745e-07
1.30862115244e-07
1.42579432476e-07
1.42310078602e-07
1.41629767133e-07
1.40636541071e-07
1.3936140622e-07
1.37834838612e-07
1.36075627669e-07
1.34083770752e-07
1.31918950833e-07
1.29820895325e-07
1.40833700094e-07
1.40436282235e-07
1.39694703648e-07
1.38730399647e-07
1.37545210809e-07
1.36134970562e-07
1.34507527639e-07
1.3270032964e-07
1.30760558071e-07
1.28792611597e-07
1.38936082899e-07
1.38372007047e-07
1.37531028191e-07
1.36560146827e-07
1.35439271502e-07
1.34170689804e-07
1.3277771139e-07
1.31270981528e-07
1.29629319079e-07
1.27803603249e-07
1.36838431761e-07
1.36108610939e-07
1.35165039435e-07
1.34156970758e-07
1.33101354896e-07
1.32006648105e-07
1.30890461169e-07
1.29727823063e-07
1.28461831108e-07
1.26851015024e-07
1.34822546949e-07
1.33881017526e-07
1.32904830059e-07
1.31894992766e-07
1.30894174033e-07
1.29901758475e-07
1.28927346883e-07
1.27949723635e-07
1.26940087683e-07
1.25577221909e-07
1.75983332469e-07
1.75789384145e-07
1.74994187255e-07
1.73698839926e-07
1.72005591369e-07
1.69988619174e-07
1.67643066989e-07
1.64958649214e-07
1.61810970487e-07
1.58596434144e-07
1.75805220011e-07
1.75611668654e-07
1.74816506569e-07
1.73525257644e-07
1.71819690681e-07
1.6973628182e-07
1.67234945924e-07
1.64283207321e-07
1.60811016088e-07
1.57221130358e-07
1.75143515344e-07
1.74930085697e-07
1.74108326865e-07
1.72797533107e-07
1.71043096395e-07
1.68849607402e-07
1.66176614838e-07
1.63018686467e-07
1.59372828477e-07
1.55749435325e-07
1.74018086074e-07
1.7377392044e-07
1.72920344637e-07
1.715862965e-07
1.6978204413e-07
1.67496047739e-07
1.6471302247e-07
1.61472189625e-07
1.57793329337e-07
1.54220509901e-07
1.72368315901e-07
1.72092567668e-07
1.71204738135e-07
1.69848148571e-07
1.680218503e-07
1.65713662413e-07
1.62932535737e-07
1.59722540285e-07
1.56154292076e-07
1.52701832213e-07
1.70205498513e-07
1.69886895981e-07
1.68953666105e-07
1.6757531907e-07
1.65766155911e-07
1.63526953717e-07
1.60867111765e-07
1.57816423e-07
1.54482238806e-07
1.51184711791e-07
1.67623084832e-07
1.67209640077e-07
1.66194949085e-07
1.64789187181e-07
1.63034687689e-07
1.60937264522e-07
1.58495427095e-07
1.55758547605e-07
1.52780275155e-07
1.49665145939e-07
1.64764366765e-07
1.64150601146e-07
1.62994128471e-07
1.61551954272e-07
1.59859060207e-07
1.57940968551e-07
1.55822137699e-07
1.53522648396e-07
1.51002413722e-07
1.48116333627e-07
1.61579692271e-07
1.60682545377e-07
1.59361628104e-07
1.57881086383e-07
1.56298513417e-07
1.54625093713e-07
1.52874535724e-07
1.51037333314e-07
1.49060025142e-07
1.46517590994e-07
1.58420092457e-07
1.57146935556e-07
1.55765180208e-07
1.54306919091e-07
1.52833637128e-07
1.51324489313e-07
1.49771863991e-07
1.48170719419e-07
1.46533083367e-07
1.44396121278e-07
2.17463055324e-07
2.17275523497e-07
2.1632741512e-07
2.14659868995e-07
2.12253661729e-07
2.09203160262e-07
2.05605654363e-07
2.01507360688e-07
1.96730686118e-07
1.91697136196e-07
2.17317693351e-07
2.17104767652e-07
2.16145573093e-07
2.1447798859e-07
2.1204803277e-07
2.08892935113e-07
2.05059393821e-07
2.00574269169e-07
1.9533271208e-07
1.8977478616e-07
2.16413248178e-07
2.16166014327e-07
2.1515394714e-07
2.13450505269e-07
2.10967626019e-07
2.07675325884e-07
2.03584101631e-07
1.98760831486e-07
1.93228098797e-07
1.8761870069e-07
2.14795525319e-07
2.1451914136e-07
2.13440839648e-07
2.11676817401e-07
2.09132767514e-07
2.05746495026e-07
2.01512670631e-07
1.96536328087e-07
1.90907016058e-07
1.85348910557e-07
2.12433799383e-07
2.12134230017e-07
2.10970936594e-07
2.09109658906e-07
2.06500946156e-07
2.03107019016e-07
1.98921300391e-07
1.94008491487e-07
1.88506065795e-07
1.83080379801e-07
2.09362377923e-07
2.0901786464e-07
2.07737067446e-07
2.05753379853e-07
2.03097421629e-07
1.99793865584e-07
1.95831226341e-07
1.91204123462e-07
1.86038071726e-07
1.80802399113e-07
2.05631600817e-07
2.05157134605e-07
2.03711188364e-07
2.01613324886e-07
1.9896880914e-07
1.95840221753e-07
1.92213883112e-07
1.88082340152e-07
1.83452043494e-07
1.78475000472e-07
2.01335267486e-07
2.00568074927e-07
1.98899709003e-07
1.96728762456e-07
1.94153697117e-07
1.91258695292e-07
1.8807589466e-07
1.84576468313e-07
1.80634483651e-07
1.76013086252e-07
1.96395381487e-07
1.95193023494e-07
1.93301972714e-07
1.9111299066e-07
1.88713421375e-07
1.86145321513e-07
1.83442928526e-07
1.80580799136e-07
1.77443616491e-07
1.73361358892e-07
1.91298513182e-07
1.89542392138e-07
1.87600334923e-07
1.85498437085e-07
1.83285063458e-07
1.80942545964e-07
1.78488389759e-07
1.75934604877e-07
1.73294323382e-07
1.69887760683e-07
2.73317671815e-07
2.73092838606e-07
2.7183573147e-07
2.6958784449e-07
2.6617974701e-07
2.61608815443e-07
2.56007169624e-07
2.49557270534e-07
2.42192108201e-07
2.34433213453e-07
2.7314621293e-07
2.72934561165e-07
2.71692633173e-07
2.69414607304e-07
2.65900451561e-07
2.6113507311e-07
2.55230167093e-07
2.48324228976e-07
2.40365659684e-07
2.31884462587e-07
2.71775298838e-07
2.71594330035e-07
2.70300586364e-07
2.67903771475e-07
2.64229407897e-07
2.59273498705e-07
2.53118619248e-07
2.45873087406e-07
2.3755986468e-07
2.28971521224e-07
2.69342500145e-07
2.69168894512e-07
2.67772863912e-07
2.652234635e-07
2.61412203903e-07
2.56364370845e-07
2.50127704436e-07
2.42775538864e-07
2.34365232233e-07
2.25828955376e-07
2.65883292328e-07
2.65648094295e-07
2.64089904993e-07
2.61375609635e-07
2.57480019056e-07
2.52457454964e-07
2.463300828e-07
2.39104312338e-07
2.30884411201e-07
2.22544890876e-07
2.61456218845e-07
2.61051545615e-07
2.59260239532e-07
2.56383680295e-07
2.52469984966e-07
2.47594679551e-07
2.41754710429e-07
2.34899291439e-07
2.27130983693e-07
2.19081581653e-07
2.56032334752e-07
2.5531964283e-07
2.53227274346e-07
2.5020605202e-07
2.46358256449e-07
2.41752288866e-07
2.36367575281e-07
2.30162126744e-07
2.23102770709e-07
2.15419101814e-07
2.49604305904e-07
2.48425350502e-07
2.45991601178e-07
2.42867641821e-07
2.39138083043e-07
2.34885595709e-07
2.30138953023e-07
2.24818455117e-07
2.18705290021e-07
2.11506899488e-07
2.42070139542e-07
2.40312512919e-07
2.37589560883e-07
2.34437038006e-07
2.30927219388e-07
2.27116654637e-07
2.23059847927e-07
2.18677390241e-07
2.13730629437e-07
2.07303803052e-07
2.34106685765e-07
2.31664977771e-07
2.28911896586e-07
2.25879429612e-07
2.22600793474e-07
2.19083909777e-07
2.15383592453e-07
2.11481925964e-07
2.07312579488e-07
2.01951461401e-07
3.44133774678e-07
3.43947223232e-07
3.42092418075e-07
3.38732713757e-07
3.33763416814e-07
3.27103270792e-07
3.18783791152e-07
3.09050186338e-07
2.98029033088e-07
2.86452551541e-07
3.4383022123e-07
3.43706020741e-07
3.41883403782e-07
3.38459848014e-07
3.33320165503e-07
3.2641003199e-07
3.17737627112e-07
3.07459315349e-07
2.95680649181e-07
2.83179314502e-07
3.41772160163e-07
3.41709896353e-07
3.39839635266e-07
3.36241499078e-07
3.30837681456e-07
3.23661554841e-07
3.14748948839e-07
3.0418724108e-07
2.92069575202e-07
2.79444673395e-07
3.38188108813e-07
3.38109239178e-07
3.36112204838e-07
3.32320766353e-07
3.26707863629e-07
3.19389805098e-07
3.10438911116e-07
2.99898094004e-07
2.87804558829e-07
2.75289445055e-07
3.33114965539e-07
3.32870186538e-07
3.30651759796e-07
3.26695887497e-07
3.21021981645e-07
3.13755219706e-07
3.04968114651e-07
2.9466444653e-07
2.82904075755e-07
2.70704877326e-07
3.26603617415e-07
3.26023446812e-07
3.23483535309e-07
3.19393025933e-07
3.13803286568e-07
3.06794479219e-07
2.98385298376e-07
2.88551872353e-07
2.77386362241e-07
2.65629238049e-07
3.18631673826e-07
3.1755400837e-07
3.14601660033e-07
3.10381175938e-07
3.0497998985e-07
2.98410134986e-07
2.90623165619e-07
2.81603353699e-07
2.71331948994e-07
2.60104682273e-07
3.09229288041e-07
3.07499385749e-07
3.04072325744e-07
2.99727561574e-07
2.94547487738e-07
2.88532500221e-07
2.81638420018e-07
2.73777060236e-07
2.64728402323e-07
2.5417842529e-07
2.98322497806e-07
2.9582288361e-07
2.9196861302e-07
2.8755197313e-07
2.82672300277e-07
2.77304898592e-07
2.71404543117e-07
2.64841615981e-07
2.57356361465e-07
2.47871973947e-07
2.86658993753e-07
2.83302058917e-07
2.79364100612e-07
2.75046491664e-07
2.70449220971e-07
2.65518631718e-07
2.60196307473e-07
2.54391750776e-07
2.48035386574e-07
2.40069180974e-07
4.29004175344e-07
4.28808979559e-07
4.26087414968e-07
4.21003017176e-07
4.13661072396e-07
4.04215628682e-07
3.92692473236e-07
3.79161519159e-07
3.6367610476e-07
3.47112062781e-07
4.28469783625e-07
4.28332951987e-07
4.25604926398e-07
4.20453744272e-07
4.1297194423e-07
4.03259645461e-07
3.91261384139e-07
3.77003410339e-07
3.6060417634e-07
3.43035014686e-07
4.25571137473e-07
4.25412483893e-07
4.22579737107e-07
4.1730047005e-07
4.09645812974e-07
3.99653919302e-07
3.87256091581e-07
3.72536202792e-07
3.55743074247e-07
3.38173236309e-07
4.2049245131e-07
4.20211677676e-07
4.17211476186e-07
4.11797941765e-07
4.040153796e-07
3.93891303921e-07
3.81393236973e-07
3.66656177971e-07
3.49951590855e-07
3.32641768501e-07
4.13187044241e-07
4.12667438922e-07
4.09439244225e-07
4.03889141216e-07
3.96079014047e-07
3.86065251865e-07
3.73842122187e-07
3.59499896631e-07
3.4328972954e-07
3.26435911086e-07
4.03742175351e-07
4.02859815252e-07
3.99313711283e-07
3.93629128784e-07
3.85921008489e-07
3.76280309258e-07
3.64673232797e-07
3.51093279958e-07
3.35727654252e-07
3.1948867888e-07
3.92304424915e-07
3.90883857171e-07
3.86894905395e-07
3.81079674946e-07
3.73628301232e-07
3.64597366029e-07
3.53891580446e-07
3.41466793774e-07
3.27327356553e-07
3.11862115022e-07
3.7909501192e-07
3.76890536293e-07
3.72329066568e-07
3.66399587965e-07
3.59299559553e-07
3.51042766548e-07
3.41514220792e-07
3.30595739775e-07
3.18070440689e-07
3.0358970182e-07
3.64074601958e-07
3.60846892757e-07
3.55714480975e-07
3.49733358669e-07
3.43087698299e-07
3.35708619543e-07
3.27457598892e-07
3.1818478399e-07
3.07656347267e-07
2.94624543972e-07
3.47867599237e-07
3.43532549139e-07
3.38265049671e-07
3.32441718895e-07
3.26210835077e-07
3.1944828049e-07
3.11991337892e-07
3.03727794261e-07
2.94656378119e-07
2.8361370443e-07
5.26350124848e-07
5.25645252989e-07
5.21695534227e-07
5.14594976524e-07
5.04411029066e-07
4.91522801924e-07
4.7617003439e-07
4.58298482063e-07
4.37717771957e-07
4.15260291841e-07
5.25421365683e-07
5.24742866311e-07
5.20775256734e-07
5.13614433027e-07
5.03284026369e-07
4.90073496252e-07
4.74141527757e-07
4.55445896901e-07
4.33886509312e-07
4.10381605587e-07
5.21434364517e-07
5.20693863652e-07
5.16608132649e-07
5.09345649446e-07
4.98907243787e-07
4.85427901654e-07
4.68954248906e-07
4.49554940506e-07
4.2744525484e-07
4.04041192901e-07
5.14455607763e-07
5.13568085998e-07
5.09280013203e-07
5.01906546773e-07
4.91447056482e-07
4.77936717424e-07
4.61312808178e-07
4.41728761825e-07
4.19647548199e-07
3.96693120517e-07
5.04372218781e-07
5.03274368784e-07
4.98749590046e-07
4.91249859628e-07
4.80847081868e-07
4.67578446009e-07
4.51339039676e-07
4.32255131397e-07
4.10828577951e-07
3.88567239436e-07
4.91387528503e-07
4.90010621191e-07
4.85195604426e-07
4.77566859888e-07
4.67297718482e-07
4.5453035997e-07
4.39177236358e-07
4.21234246407e-07
4.01012438409e-07
3.79613908742e-07
4.75811585899e-07
4.7394453882e-07
4.68718579817e-07
4.60982386043e-07
4.5101683467e-07
4.39014899367e-07
4.2493028079e-07
4.08666153782e-07
3.90142564954e-07
3.69770110411e-07
4.57972914598e-07
4.55301776488e-07
4.49542748213e-07
4.41756829503e-07
4.32224446338e-07
4.21163929839e-07
4.08599007384e-07
3.94350093321e-07
3.77964071041e-07
3.58886500762e-07
4.37876525754e-07
4.34102251418e-07
4.27829616667e-07
4.20108970783e-07
4.11153165987e-07
4.01103402921e-07
3.90034669659e-07
3.77807002402e-07
3.63943814938e-07
3.46780143903e-07
4.16108547691e-07
4.11124399729e-07
4.0481878617e-07
3.97450729446e-07
3.89112829761e-07
3.79831523597e-07
3.6966180074e-07
3.58594534263e-07
3.46536453921e-07
3.31973684191e-07
6.34747510992e-07
6.32917081484e-07
6.27277961957e-07
6.18049504695e-07
6.05048544667e-07
5.88311912008e-07
5.68113937128e-07
5.44741685947e-07
5.18241102e-07
4.89412975447e-07
6.33181280319e-07
6.31317741949e-07
6.25657704729e-07
6.16308237218e-07
6.0302644721e-07
5.8593607089e-07
5.65273341793e-07
5.41182643305e-07
5.13682079178e-07
4.83711965932e-07
6.27698415517e-07
6.25865834431e-07
6.20160478478e-07
6.10594272205e-07
5.96976199148e-07
5.79521392819e-07
5.58479537399e-07
5.3391975545e-07
5.05933496466e-07
4.76012496791e-07
6.18353853923e-07
6.1652874231e-07
6.10676473667e-07
6.00933951513e-07
5.87164180272e-07
5.69629065251e-07
5.4855860829e-07
5.24033940297e-07