/*--------------------------------*- C++ -*----------------------------------*\
  =========                 |
  \\      /  F ield         | OpenFOAM: The Open Source CFD Toolbox
   \\    /   O peration     | Website:  https://openfoam.org
    \\  /    A nd           | Version:  6
     \\/     M anipulation  |
\*---------------------------------------------------------------------------*/
FoamFile
{
    version     2.0;
    format      ascii;
    class       volScalarField;
    location    "0.00974051494";
    object      T;
}
// * * * * * * * * * * * * * * * * * * * * * * * * * * * * * * * * * * * * * //

dimensions      [0 0 0 1 0 0 0];

internalField   nonuniform List<scalar> 
101600
(
120.404625822
120.131033621
119.371989973
117.526143573
114.865596863
112.018038254
109.228617797
106.351039893
102.856648005
99.4908175656
119.750191414
119.154343965
118.25662638
116.412923527
113.82068956
110.985972937
108.107263343
104.958371443
101.155855538
97.6147653306
118.480618594
117.646146135
116.667367289
115.006123357
112.695984313
110.006647587
106.954245583
103.424038562
99.4206244463
96.0021177769
116.758409906
115.889994082
114.906670586
113.301979191
111.109624024
108.500004126
105.347451823
101.697711333
97.724704333
94.4297106436
114.743770109
113.957937758
112.938894874
111.214194596
108.885651364
106.203845253
103.121153572
99.6811071527
95.9899904281
92.8260906918
112.513800896
111.729745037
110.556766457
108.685707913
106.219005289
103.523440881
100.656547062
97.5689267899
94.2865144608
91.2957453298
109.963042854
109.019599574
107.54960161
105.51842851
103.126302617
100.697259806
98.2028052331
95.5570246958
92.7769420038
90.0835438542
106.891128177
105.641471267
103.848359263
101.697989338
99.5301560387
97.5757416375
95.6968788906
93.6500148345
91.3961649527
89.0496762337
103.147934462
101.635670556
99.7172773414
97.6291946539
95.8084911661
94.3495784972
93.0464921166
91.6179621597
89.9684563183
88.0050645846
99.6134034434
97.8936809647
96.1083543588
94.2214424637
92.6600929205
91.4672680254
90.4107133686
89.3005044705
88.0912396227
86.5252023945
135.215177297
134.857361753
133.804924
131.584666733
128.527469074
125.245186163
121.932665126
118.427592661
114.218792348
110.242815438
134.330285249
133.722503135
132.536461947
130.232508417
127.166841862
123.936652649
120.568961444
116.739863168
112.202547633
108.055637787
132.771593101
131.941866555
130.598609124
128.354806947
125.541170213
122.487187016
118.942510371
114.740749502
110.080239365
106.093959622
130.727708788
129.811169022
128.36932664
126.116818073
123.425625435
120.430674599
116.781421648
112.526307695
107.955455892
104.095655041
128.352974776
127.45959879
126.006875
123.711493203
120.888182709
117.742264168
114.124224798
110.07873009
105.779214326
102.047522737
125.668348827
124.735790687
123.255780702
120.981126591
118.052212586
114.827043209
111.352110994
107.59118182
103.673301794
100.133931845
122.519702546
121.369684857
119.675771568
117.378587607
114.577939102
111.603033057
108.496409892
105.202146629
101.817625507
98.6037168388
118.791629293
117.265209534
115.236453191
112.860746599
110.312332348
107.825569692
105.410626085
102.865110775
100.131184065
97.3117033463
114.368147542
112.550561317
110.352210409
108.008545447
105.822319332
103.88326535
102.146684745
100.384666438
98.4240902529
96.06985404
110.216201251
108.165632662
106.066390635
103.90631978
102.042771615
100.453466827
99.0120782589
97.6260638885
96.2101083909
94.3363711498
154.904535061
154.340233582
152.888624971
150.33237268
146.970916645
143.220890387
139.191718858
134.821902054
129.740725677
125.044557966
153.707201941
152.927675962
151.33421697
148.642751902
145.231136533
141.573406009
137.525865586
132.814208332
127.404335556
122.494741007
151.833056061
150.831918443
148.991288908
146.190556642
142.918906678
139.427573766
135.260750384
130.277042052
124.832715879
120.07901902
149.482075131
148.348272737
146.3128585
143.391695715
140.161187839
136.670690448
132.42404828
127.477569629
122.168548042
117.545084729
146.744496749
145.588195471
143.56413459
140.640457869
137.254133377
133.525490652
129.243017995
124.464828106
119.416851838
114.974614489
143.48441285
142.267465565
140.348802709
137.592493696
134.13170657
130.246484202
125.998599925
121.418357429
116.754121856
112.588306981
139.528123625
138.076220307
136.079853132
133.459557121
130.161261488
126.4653331
122.544332949
118.461785238
114.394463601
110.616652017
134.988923605
133.124116182
130.825442263
128.18935336
125.14186521
121.912274918
118.739689128
115.559571571
112.291149198
108.960913055
129.812245368
127.604936997
125.063017153
122.405208413
119.728004844
117.126369367
114.773338503
112.559549631
110.245640841
107.465905377
124.967093698
122.454116518
119.93769224
117.42115126
115.128513106
112.985763263
111.02988686
109.293409359
107.639782747
105.416445367
181.216797234
180.228259901
178.245751671
175.358697944
171.747361078
167.474118285
162.530374871
157.079286309
150.998530788
145.454125234
179.615963509
178.398155809
176.259349961
173.256640197
169.614409201
165.448143446
160.510363343
154.745596908
148.332990602
142.45240407
177.373365569
175.925394996
173.495521072
170.251019632
166.576842953
162.493841005
157.524458392
151.640241325
145.237053123
139.446689719
174.699665694
173.101613475
170.425382244
166.945692523
163.154749174
158.972803333
153.951650715
148.17779717
141.924209649
136.274753415
171.534151714
169.903965036
167.223209845
163.702777949
159.711396228
155.236645713
150.111740052
144.44892309
138.480063
133.137978471
167.538387394
165.869909476
163.346873486
160.017547994
155.964559758
151.299023463
146.13180053
140.622639934
135.10904747
130.206549498
162.605682629
160.753789349
158.274793308
155.160412029
151.254440684
146.709901941
141.825175368
136.86098536
132.054255142
127.647612573
157.157836328
154.904365693
152.186578823
149.106078226
145.40816026
141.277732693
137.151560423
133.196255222
129.340219837
125.452610213
151.174324203
148.49541913
145.459225738
142.305612546
138.971174685
135.546454932
132.372416523
129.523606075
126.77663444
123.532138256
145.537125396
142.408231672
139.30849005
136.254050624
133.344885993
130.486034173
127.861566453
125.624994543
123.630927873
120.996361692
215.979320759
214.388350856
211.795361497
208.480655987
204.479156684
199.538831859
193.567683526
186.966998474
179.817139173
173.263390883
213.98469615
212.164533833
209.421720899
206.061178069
202.07775473
197.197975128
191.198149081
184.299436571
176.758333212
169.671348649
211.315408158
209.288198383
206.311953727
202.710484357
198.552775377
193.599291059
187.573386876
180.619689215
173.028870661
165.935217555
208.178385
206.016817559
202.82278543
198.957754205
194.554537138
189.40035077
183.305552747
176.455252134
168.988271063
162.05205078
204.36756117
202.184396595
198.906961068
194.897954603
190.281477304
184.887799859
178.701206685
171.951546784
164.83845588
158.34508171
199.483301417
197.311242863
194.078516434
190.087321859
185.39814394
179.915026829
173.776181229
167.26733466
160.747457696
154.85141028
193.567809335
191.302130955
188.094522922
184.195216248
179.576424196
174.226841219
168.420107111
162.559651751
156.893885262
151.604749454
187.198552847
184.554164845
181.139478461
177.260702636
172.777556701
167.786856563
162.706153521
157.88837825
153.312954911
148.64737517
180.272494238
177.088935617
173.341789093
169.407963622
165.276361462
161.00215952
156.90495422
153.221583425
149.86006651
145.96496652
173.626547723
169.79202951
165.95200479
162.144250162
158.461345357
154.805120658
151.378616999
148.399761295
145.818791518
142.600524164
259.916368719
257.808006114
254.707776612
250.840574855
246.133477394
240.30029261
233.309616275
225.649073478
217.374767973
209.593471847
257.728616673
255.493735367
252.306920304
248.442176645
243.746891789
237.847243796
230.682591654
222.625987477
213.813361826
205.290306259
254.649894553
252.309160686
249.020489433
245.027212486
240.118684141
233.976879303
226.627670253
218.374511005
209.354255673
200.756994305
250.823601118
248.390917291
244.962442844
240.78498955
235.637186895
229.265747137
221.785810189
213.530114577
204.564281016
196.124115563
246.089841746
243.613935163
239.986305565
235.570312165
230.269620315
223.847295234
216.429339541
208.346846929
199.788673235
191.807820373
240.274749665
237.794542487
233.954838563
229.267461781
223.881199625
217.621180332
210.557835307
202.952646566
195.114652927
187.732682192
233.535896182
230.964293858
226.924365472
222.028117114
216.621869859
210.637661042
204.116254397
197.352158922
190.515289371
183.769181465
226.25501134
223.252695415
218.929401179
213.966189067
208.643996148
203.008340713
197.20058478
191.498866628
185.884316424
179.8807053
218.123158626
214.451546958
209.851965903
204.940269618
199.981466567
194.993334499
190.075411838
185.445493136
181.138801036
176.086299598
210.120563372
205.605198601
200.983716863
196.31945855
191.839591207
187.437678577
183.170438574
179.210103162
175.672905107
171.483607051
311.434711541
309.162945604
305.824507414
301.437572326
295.882523417
289.085403746
281.186238819
272.564353049
263.060963938
253.805000817
309.34956528
307.130321081
303.815037827
299.416685861
293.768211355
286.728070937
278.436037669
269.212448205
258.986765923
248.826816434
306.021484867
303.851737267
300.528364911
296.061538395
290.208451235
282.828611715
274.137691348
264.466197119
253.85914103
243.601463331
301.474766358
299.28006719
295.860542821
291.268922375
285.252934654
277.699593577
268.843512438
259.04373124
248.38826228
238.245928034
295.793782103
293.49035738
289.789985777
284.928257899
278.834302033
271.417533149
262.814889793
253.276133394
242.994986847
233.185283333
289.159406298
286.692545183
282.552348525
277.255251023
271.092658633
264.051950454
256.094425784
247.252741706
237.727705516
228.363262478
281.712349616
278.960679965
274.330842766
268.606006551
262.413053938
255.815754512
248.631081486
240.825676255
232.399564348
223.609671764
273.471256132
270.118607515
265.031331862
259.13807525
253.046104912
246.865333279
240.472960376
233.820757475
226.741571718
218.764994663
263.957995069
259.81198357
254.453633141
248.673051711
242.968455058
237.388153035
231.827305051
226.263746947
220.659206306
213.810561816
254.375379902
249.262053903
243.950305181
238.500747815
233.282332585
228.206276122
223.167945352
218.188495792
213.43804236
207.820338523
366.52387299
364.467470515
361.149087236
356.501503772
350.453882692
343.094135202
334.607721585
325.181059014
314.507206623
303.752440009
364.740820408
362.839469635
359.607696045
354.900109594
348.631348696
340.890847629
331.855091648
321.664206322
310.123756782
298.335588745
361.445627556
359.681058403
356.430001177
351.5795996
345.05601636
336.942644732
327.412525689
316.633529302
304.595764944
292.668374826
356.589305688
354.847943172
351.473817768
346.43924027
339.736215761
331.470358096
321.777979084
310.815913358
298.638564982
286.75070084
350.408041797
348.499147035
344.835636759
339.544111678
332.752375626
324.610652975
315.180592946
304.464743053
292.570775789
280.892498968
343.220439885
340.942708267
336.799382525
331.156419714
324.334287223
316.534180222
307.707354121
297.660787941
286.460402905
275.116176071
335.102207031
332.264141428
327.511382791
321.49763793
314.727519024
307.397727589
299.351144676
290.347554613
280.237772032
269.407024094
325.94662304
322.311884006
316.944701772
310.705951585
304.081506641
297.256749175
290.120408576
282.391202645
273.700776515
263.653619691
315.299670525
310.771352537
304.98613403
298.730479997
292.443090549
286.245299387
280.049976811
273.610173691
266.632060199
257.788365891
304.372869955
298.810778274
292.994180218
286.949228341
281.040514195
275.257525636
269.513659664
263.695035104
257.805279774
250.621425339
417.799444461
416.186183938
413.129051559
408.648642503
402.785052517
395.620177377
387.197072696
377.535076241
366.355014336
354.684635224
416.345036176
414.830020932
411.81356366
407.245099206
401.140415332
393.58642303
384.602913094
374.149230742
362.01301363
349.198803406
413.366235484
411.920854542
408.828245803
404.052629617
397.637663126
389.686264977
380.204178727
369.148843108
356.440238011
343.390590513
408.850160697
407.38352763
404.125466208
399.098655105
392.413198034
384.213975775
374.506203083
363.231079598
350.324948116
337.229946332
402.918486384
401.264510849
397.739965571
392.461979435
385.601994581
377.345188645
367.704633429
356.543285496
343.826027682
330.885931943
395.737520415
393.673868131
389.749125762
384.232255756
377.324818714
369.212441881
359.893772175
349.167299636
337.004441974
324.367655918
387.363972714
384.663906274
380.186375578
374.419187786
367.5869334
359.822984986
351.087583305
341.200963265
329.985441254
317.800137257
377.804412177
374.250733236
369.10603468
363.074423921
356.356689502
349.074352892
341.234210674
332.604475294
322.755542811
311.239047259
366.759311001
362.245638856
356.496717089
350.239622854
343.710079963
337.017556505
330.193545306
322.999518915
314.985146929
304.629179428
355.172067315
349.563123123
343.601741936
337.316518766
330.96146757
324.576853539
318.198109122
311.711621839
304.945254044
296.529891398
453.582811337
452.388432517
449.889262972
446.102633645
441.045111751
434.746733692
427.18702236
418.312029746
407.903024727
396.560437334
452.386638014
451.186773136
448.656211469
444.786867789
439.560870574
432.970720879
424.94845402
415.377078295
404.037547134
391.568959687
449.890508768
448.65274816
446.018202343
441.974679057
436.486173291
429.532322116
421.034345664
410.871975539
398.913931774
386.114498018
446.129486577
444.801388798
441.99167286
437.714667347
431.948916441
424.689682347
415.876513472
405.405142585
393.172814884
380.229374986
441.100923956
439.602991356
436.535899159
431.988898619
425.988550832
418.553990742
409.640711624
399.133162995
386.947541387
374.047061868
434.797088674
433.004299853
429.581631684
424.750695658
418.598524774
411.155721753
402.370323641
392.100535664
380.264174967
367.541478321
427.200409819
424.927140101
421.024751183
415.899652198
409.689932357
402.414917922
394.007369291
384.334055294
373.207749803
360.791390442
418.314637021
415.319943809
410.800105831
405.359955391
399.143968976
392.170720428
384.419103841
375.742885369
365.758841367
353.861444511
407.96639444
404.039934673
398.871963212
393.123644253
386.944310184
380.358644754
373.397270453
365.934590392
357.581878822
346.712154188
396.725840675
391.708597686
386.205550472
380.282584094
374.108144975
367.684416024
361.058393263
354.1911611
346.941526376
338.017106014
462.776092017
461.792254491
459.949557658
457.170590313
453.349045033
448.434957733
442.424071831
435.281164833
426.878185726
417.318676687
461.754353838
460.7529533
458.867368659
456.001359981
452.040540099
446.92467477
440.615222383
433.013720445
423.920072434
413.474863569
459.788169511
458.750051409
456.768133689
453.747628258
449.590087412
444.231175245
437.595430645
429.542664624
419.909919383
409.092768101
456.902283097
455.787472782
453.648731017
450.424371118
446.054194291
440.477473742
433.588518961
425.225371994
415.27121317
404.207095601
453.114415317
451.857219163
449.490926701
446.022787571
441.443910731
435.702960508
428.673566527
420.188376951
410.117255529
398.928646922
448.362956555
446.875693929
444.203235105
440.459290834
435.691610472
429.860245731
422.832915694
414.425720471
404.45570429
393.248100141
442.51223731
440.681174728
437.619577741
433.57824887
428.655423728
422.825924319
415.965328111
407.871025036
398.285950341
387.183449518
435.426628653
433.095816194
429.556039393
425.203008703
420.169313778
414.425866935
407.879436742
400.358290539
391.511854518
380.721156623
426.992563265
423.959763599
419.894747689
415.243697375
410.109824006
404.473457426
398.3119615
391.528975774
383.823764416
373.786370956
417.404383354
413.514002697
409.102892178
404.214393509
398.951061821
393.290229624
387.234839207
380.767415468
373.816500845
365.416737086
443.442946591
442.579984851
441.211309648
439.299283202
436.812542589
433.638096516
429.67419128
424.856605629
419.178551313
412.467713204
442.52888001
441.672846524
440.266320509
438.26569554
435.663668696
432.378936245
428.302920051
423.309415342
417.278806131
410.048669046
441.109206433
440.237246112
438.76769023
436.64348281
433.894547543
430.482488427
426.284462293
421.09520045
414.744695553
407.180150148
439.160403152
438.224852362
436.655706079
434.398409403
431.506327126
427.961977989
423.629959367
418.255948016
411.665167773
403.821328819
436.677133035
435.614411527
433.913322334
431.537482416
428.527423568
424.848244495
420.359913123
414.839295065
408.061694868
400.003844347
433.584290938
432.336410765
430.468845083
427.974964653
424.863293682
421.061346921
416.441783625
410.823804852
403.929637857
395.718550554
429.770406375
428.301979999
426.22138057
423.568145216
420.336014992
416.445622174
411.786411089
406.160752485
399.285872199
390.990323937
425.093316956
423.376647869
421.019012842
418.131184195
414.756639901
410.811293937
406.18101776
400.697123454
394.070588424
385.820321471
419.47796649
417.408988856
414.70853389
411.542807206
407.95398951
403.895931702
399.3137816
394.104069486
388.02254281
380.125652848
412.757500424
410.213501322
407.201139164
403.743733578
399.907174039
395.667681182
390.99425724
385.841721395
380.129920324
373.309645599
404.222188184
403.467074659
402.476018432
401.242568752
399.892403428
398.404018673
396.631190866
394.388739779
391.625276676
388.064122982
403.433689022
402.653622551
401.604626838
400.318106995
398.941779599
397.449079539
395.674315693
393.417792441
390.581444658
386.883624531
402.569591555
401.724016017
400.633782295
399.32641349
397.928771038
396.396847129
394.566612568
392.236006914
389.283541865
385.38948983
401.520780372
400.5933528
399.472753426
398.158942164
396.729097995
395.11503114
393.174593206
390.721293559
387.631519236
383.514258029
400.223906814
399.228468559
398.093844587
396.778191998
395.304228315
393.585238928
391.500097026
388.913493633
385.632221908
381.276467301
398.615777006
397.587760162
396.452046308
395.119310711
393.579655259
391.740387303
389.505023031
386.766188756
383.260158531
378.673730275
396.700936252
395.672216307
394.522575547
393.13231938
391.485342465
389.511180885
387.134551795
384.210698352
380.49537456
375.706480279
394.449532982
393.419476667
392.197024226
390.679685218
388.905073172
386.791567522
384.238713009
381.134402667
377.293578763
372.361938571
391.811811022
390.70124344
389.315338331
387.611265354
385.624214935
383.291664987
380.541834493
377.318312823
373.486962927
368.555893599
388.368198947
387.091691141
385.462334249
383.497011602
381.251373054
378.68114631
375.726532503
372.358730365
368.526311585
364.031172786
357.328470289
356.594570638
356.001683956
355.479541524
355.107583706
354.945160034
354.94648215
354.916456627
354.707669351
353.986718311
356.701778345
355.915169355
355.268961413
354.733606391
354.387646841
354.258249647
354.297669147
354.353159558
354.2809548
353.703713629
356.28910365
355.430006223
354.760338635
354.264356245
353.987108324
353.887636723
353.897467874
353.912665462
353.83486788
353.196019417
355.948957397
355.046351171
354.386135245
353.935234883
353.704795978
353.600418865
353.534087846
353.431339208
353.249858341
352.463924575
355.641125935
354.76685484
354.156034768
353.728284117
353.481120138
353.324327464
353.168028502
352.955895724
352.591356115
351.586110546
355.345868781
354.574800981
354.047472043
353.619102696
353.297534636
353.033951501
352.767329825
352.431060711
351.833845064
350.581425688
355.092531868
354.470224544
354.042570198
353.604986076
353.17387792
352.753526803
352.322612934
351.768753758
350.897465197
349.402215581
354.856004031
354.392234858
354.053075087
353.593886084
353.059644408
352.449874346
351.739804145
350.861201945
349.687233468
347.960916416
354.59482316
354.262121618
353.968512208
353.468787694
352.773848585
351.889982037
350.828186449
349.588399414
348.090900225
346.143020962
353.914314337
353.670910394
353.290721813
352.659538043
351.774265233
350.646285384
349.304765592
347.774685859
346.00744754
343.993341735
311.796685977
311.122702419
310.881595328
311.024992837
311.508981838
312.284797973
313.358795316
314.71022555
316.302105103
317.848802754
311.320087636
310.609376194
310.354035916
310.494066583
310.982952342
311.794029895
312.970930905
314.510213288
316.341017187
318.120808134
311.188078413
310.468205396
310.230186244
310.385162726
310.894909882
311.758923714
313.028010614
314.677802686
316.607425976
318.356823853
311.335311615
310.641066043
310.436263108
310.60773877
311.138542137
312.034694411
313.329014076
314.974607003
316.878699831
318.526703485
311.797644997
311.166580438
311.012375226
311.208481338
311.748210268
312.629368399
313.867226828
315.432110288
317.202676707
318.692720521
312.562403169
312.026386691
311.952950242
312.185520716
312.713905655
313.524956068
314.640532387
316.050533652
317.592850913
318.873081449
313.578564369
313.183936699
313.237770271
313.519921602
314.000674571
314.687367926
315.62520691
316.77461143
317.995041383
319.021647019
314.758560027
314.583535534
314.816639334
315.149538258
315.563348528
316.0757578
316.733153176
317.515836601
318.341525794
319.086345499
316.105733996
316.231002828
316.661846293
317.039579027
317.330653278
317.586165908
317.886417863
318.252201925
318.617701682
319.03243257
317.442817803
317.861677654
318.335982914
318.666108817
318.824310047
318.876186141
318.916950407
318.984866734
319.007897917
319.102665494
271.675770288
271.257407054
271.32372773
271.868007465
272.871625496
274.235692808
275.935057197
278.068506357
280.761039781
283.868597668
271.345767585
270.913150201
270.97369939
271.513276262
272.527095364
273.951760777
275.789085566
278.126593616
281.06107613
284.424131298
271.414671574
270.992622389
271.073892442
271.618980504
272.638803893
274.13264287
276.143817721
278.71531056
281.847421841
285.210846579
271.897362267
271.502531734
271.626679742
272.191023868
273.217579574
274.746724186
276.860817487
279.567247513
282.780263049
286.067307841
272.864277875
272.501001349
272.677180998
273.286095911
274.336120746
275.865763784
277.966492697
280.651206681
283.783940342
286.941423142
274.282034018
273.958456879
274.20659856
274.883867687
275.973994188
277.4730499
279.454579756
281.955705537
284.855151369
287.843455839
276.074162088
275.851116625
276.219461224
276.981836983
278.091296629
279.518991191
281.308485668
283.486257763
286.02954769
288.814829819
278.176579267
278.155873359
278.694237349
279.538534103
280.653155547
281.981461572
283.518278219
285.29838861
287.404928025
289.941563174
280.639660744
280.924079365
281.649520355
282.556736622
283.624065576
284.810303304
286.093882609
287.501382028
289.117656149
291.29294579
283.429812586
284.041026495
284.816219827
285.678702302
286.649397918
287.721559971
288.880630392
290.122413317
291.44257647
293.168949904
237.654627774
237.562276163
237.880945379
238.582514496
239.740229745
241.40013984
243.575881412
246.306129395
249.678109396
253.653246534
237.470735492
237.387213573
237.702415342
238.418463324
239.629762599
241.359965303
243.625898757
246.503796501
250.105068984
254.362716489
237.725070164
237.62366454
237.938286363
238.7010538
240.00160055
241.843519051
244.236733572
247.271522133
251.058635044
255.395781666
238.441616251
238.317020328
238.659623872
239.478641804
240.855090109
242.785098321
245.278775571
248.410063147
252.270664694
256.600511095
239.646956103
239.528415799
239.927820446
240.807008652
242.217995273
244.173514993
246.69775303
249.833324715
253.641721028
257.899425561
241.338485541
241.256205251
241.732370576
242.67188427
244.103498408
246.031376142
248.484469966
251.505395264
255.159105221
259.317935351
243.526365826
243.530127619
244.102086216
245.109748587
246.558381791
248.433708626
250.737154498
253.511787764
256.904020063
260.941464942
246.21228106
246.353420785
247.04068507
248.120471811
249.605998481
251.432113454
253.54741608
256.001866646
259.019651694
262.858095376
249.441749775
249.781242069
250.598066396
251.741368557
253.227173045
254.987352291
256.936368653
259.086829643
261.63483806
265.097719829
253.200688468
253.774160009
254.626344607
255.7509104
257.186523986
258.895706733
260.798354527
262.842100976
265.084061647
268.008778711
208.77798097
208.874077073
209.325165492
210.130626314
211.381916899
213.206836131
215.687479564
218.814096043
222.563566434
226.901244418
208.783182985
208.887670498
209.367462454
210.215444521
211.524116694
213.408773838
215.956778136
219.194164381
223.127910079
227.707177294
209.185774447
209.285618502
209.797988145
210.72405568
212.138666958
214.123519986
216.739608547
220.041185121
224.097558496
228.772384903
210.017282728
210.102413014
210.644659995
211.640849795
213.165106148
215.237194632
217.884323697
221.201306342
225.316727772
230.060490536
211.308738028
211.414804177
211.990249253
213.041964696
214.632292672
216.744491876
219.396893364
222.709448419
226.838540268
231.622627001
213.090181586
213.249352972
213.881178734
214.97280398
216.590540836
218.70365578
221.343696586
224.638137465
228.726553803
233.497170743
215.434699975
215.676571785
216.395993623
217.526881973
219.124661047
221.201206445
223.800984749
227.012422382
230.965345057
235.6612707
218.419976776
218.754142707
219.573987879
220.746216585
222.324082466
224.328267157
226.809233022
229.836102945
233.531473496
238.084728141
222.093195982
222.557089107
223.489413422
224.718290542
226.277870179
228.194327822
230.497324672
233.23375154
236.522679999
240.784728664
226.402340784
227.032674447
228.020443008
229.302130573
230.887203058
232.779708098
234.991901792
237.53891396
240.485679323
244.248167923
184.355323602
184.499521043
185.030434587
185.972436704
187.415220559
189.402953308
191.961280289
195.134830068
198.909186456
203.283798462
184.575818992
184.7051913
185.243271762
186.212517888
187.690364837
189.704715935
192.323600011
195.612258607
199.538746646
204.090559512
185.132263413
185.268573307
185.851593973
186.894757801
188.409695634
190.441356285
193.099989941
196.480853037
200.555080185
205.169601789
186.018122442
186.193703515
186.861958953
187.959641922
189.502348656
191.537119879
194.223735554
197.683132033
201.854243877
206.510486165
187.330778192
187.588245467
188.314191854
189.445351832
191.013678604
193.075429813
195.813008467
199.310280469
203.505527531
208.189681779
189.1564499
189.463558963
190.234029371
191.397788838
193.028451558
195.146533804
197.909302247
201.392323648
205.566941647
210.281159594
191.576250882
191.93994487
192.781385842
193.988779414
195.631623772
197.762557431
200.479349057
203.860069768
207.960894737
212.732697827
194.659827251
195.096928527
196.02935324
197.278611616
198.916076393
200.973507263
203.550598942
206.757014631
210.68335511
215.487066256
198.453546734
199.047582163
200.104439673
201.422327501
203.032024511
204.98190799
207.371688679
210.318340135
213.936049331
218.58650595
202.979758697
203.772559796
204.92995023
206.328745395
207.956155564
209.857963222
212.167447793
214.976659439
218.345338457
222.567454913
164.994948739
165.123850602
165.70135974
166.795333946
168.367203599
170.378582903
172.822808958
175.763361879
179.356246714
183.623290954
165.222993136
165.375553363
165.933665699
167.007029574
168.560571678
170.585806173
173.073000827
176.159540123
179.921029849
184.351524174
165.882903646
166.072300544
166.642014676
167.671653738
169.216949109
171.256586589
173.83847206
177.086702149
180.944659186
185.439227673
166.910063092
167.168766549
167.785360256
168.834827643
170.357307234
172.456968632
175.124603793
178.447254038
182.346380709
186.808352508
168.29955882
168.561057788
169.293662327
170.450584523
171.978140306
174.076585884
176.821949327
180.156045585
184.044405245
188.516138998
170.155552588
170.469963148
171.288084942
172.515965254
174.053184725
176.164909214
178.889258954
182.163048113
186.057501484
190.597756519
172.609182153
172.948425874
173.776611761
175.043894232
176.669536175
178.784030729
181.43206494
184.618910565
188.463197196
193.132768016
175.649456272
176.100509245
177.006820674
178.365031934
180.043488794
182.112164427
184.631864546
187.655545505
191.399378029
196.103449211
179.296413993
179.964596725
181.085351609
182.481055709
184.170168811
186.205352164
188.638373348
191.518812946
195.008060865
199.615926775
183.766598991
184.717865186
185.928006941
187.32980437
188.986513362
191.022786849
193.448259768
196.315868738
199.719987862
203.958976736
95.713086105
91.2386592239
87.5131642338
84.4683908354
82.323298572
80.9475869435
79.936245872
79.3855712907
79.5565582123
80.3935706156
93.7847697798
89.8788572391
86.4593143194
83.800176947
82.0322514762
80.8128010662
79.7934725589
79.2795622967
79.5271917507
80.4057299264
92.4981905913
88.8102813484
85.6637694362
83.3408407731
81.7771581746
80.6059662229
79.6460679412
79.2464857714
79.5191025753
80.3635409135
91.0887688407
87.7159209364
84.9356851023
82.8436949585
81.4014835373
80.3535305627
79.5625901544
79.2682907882
79.5326950163
80.3623768547
89.6504835082
86.7022413069
84.3227137595
82.4190553287
81.0519673556
80.1159942624
79.4845459912
79.2723654728
79.5735691491
80.4239968349
88.3534703352
85.8072414429
83.782031649
82.0751174599
80.7838580761
79.9213969003
79.3957560729
79.2705597371
79.6286797395
80.4793931625
87.3974299798
85.1427515842
83.3431492752
81.8056675653
80.5841076059
79.7633443795
79.3283306236
79.2809122328
79.6518281207
80.4915323467
86.6171779318
84.5736842251
82.899699374
81.4978246731
80.3792962934
79.6459719203
79.3128020317
79.3024362008
79.6426168961
80.4530123716
85.8021040214
83.9981151409
82.4360027379
81.152296038
80.2037571977
79.607309935
79.3200897089
79.3072018671
79.6600625309
80.4549819237
84.8997972749
83.3401212033
81.9162298411
80.7965758113
80.0291307993
79.5591678951
79.3068695902
79.3057331942
79.6737810614
80.4564400054
105.750806342
100.272230691
95.576613379
91.7121809397
88.9796381357
87.0669932433
85.5467202846
84.6808532676