/*--------------------------------*- C++ -*----------------------------------*\
  =========                 |
  \\      /  F ield         | OpenFOAM: The Open Source CFD Toolbox
   \\    /   O peration     | Website:  https://openfoam.org
    \\  /    A nd           | Version:  6
     \\/     M anipulation  |
\*---------------------------------------------------------------------------*/
FoamFile
{
    version     2.0;
    format      ascii;
    class       volVectorField;
    location    "0.00990509115";
    object      qWall;
}
// * * * * * * * * * * * * * * * * * * * * * * * * * * * * * * * * * * * * * //

dimensions      [1 0 -3 0 0 0 0];

internalField   uniform (0 0 0);

boundaryField
{
    inlet
    {
        type            calculated;
        value           uniform (0 0 0);
    }
    outlet
    {
        type            calculated;
        value           uniform (0 0 0);
    }
    staticwall
    {
        type            calculated;
        value           nonuniform List<vector> 
2400
(
(22.3886945801 0.988601394419 0.0448804297537)
(22.395245467 1.02579012718 0.0581546779285)
(22.3871152717 1.03615129246 0.0718215871965)
(22.3522085432 0.999320458698 0.0711727027773)
(22.3024470864 0.913865993417 0.0916682080194)
(22.2527636705 0.805243462572 0.095192699273)
(22.2015235018 0.653891312359 0.0939252545149)
(22.1622874016 0.493268748821 0.0989716699147)
(22.1308381123 0.303171776281 0.102103489223)
(22.1135121659 0.100237897447 0.108162079655)
(22.3852740212 0.971092851331 0.145011660556)
(22.3962762472 1.00982522657 0.176581716046)
(22.3969013454 1.03092821986 0.196409195055)
(22.3624436173 0.991040032057 0.220837510955)
(22.3136611368 0.90447879489 0.248028707225)
(22.2655765195 0.798567186282 0.25635967724)
(22.2194687856 0.658431298138 0.281745706708)
(22.1763802201 0.477053117245 0.296726649475)
(22.1475749623 0.303446718518 0.295956272324)
(22.1309716098 0.101146625164 0.304935433299)
(22.3766601741 0.937426313036 0.231438853659)
(22.3987774549 0.982060879498 0.279400490363)
(22.3921822828 0.988762740972 0.307070950422)
(22.3721301728 0.959076398569 0.35974244672)
(22.3341204892 0.882555668578 0.40718922909)
(22.2903487279 0.778536328068 0.434051649387)
(22.2435017623 0.632425573248 0.45900586633)
(22.2052548811 0.47480021691 0.47068349549)
(22.1786100212 0.286879281775 0.495429892173)
(22.1629661829 0.0977692765525 0.496730041097)
(22.3560526161 0.886347280094 0.298862830043)
(22.3872620428 0.930447873933 0.362352854878)
(22.4075391209 0.957863734915 0.424842011935)
(22.3823994438 0.915870811476 0.476974699885)
(22.351038097 0.843325553969 0.529147629737)
(22.3182918348 0.746308316421 0.578968151164)
(22.2796964106 0.616787889454 0.611730871941)
(22.249055869 0.462050388061 0.650760008461)
(22.2194535253 0.276753478358 0.661172699432)
(22.203526797 0.098133682157 0.658486393564)
(22.3421178599 0.834932534782 0.365317493426)
(22.3799316552 0.873720171436 0.442871478775)
(22.4023649445 0.890286826212 0.515492627968)
(22.3895334514 0.852446284316 0.58094623992)
(22.3736512318 0.792157861359 0.648136474139)
(22.3469604226 0.700007292437 0.700184938083)
(22.3170947764 0.57210129579 0.748258497926)
(22.2899830724 0.428642400501 0.780709974197)
(22.2680829743 0.265107172314 0.801653263867)
(22.2561849593 0.0838601345102 0.813797973683)
(22.3151897979 0.764048505601 0.423250041367)
(22.3695451625 0.814241290471 0.500935136491)
(22.4008314317 0.82654782532 0.585910637423)
(22.4037038811 0.794058303911 0.667199555789)
(22.393340686 0.724715531914 0.746232552239)
(22.3793453415 0.648488094553 0.80309248778)
(22.353064177 0.530495386659 0.845235212134)
(22.3305916769 0.393004818127 0.880430946127)
(22.318164022 0.239528157526 0.915894116079)
(22.3075339128 0.0768642828277 0.925548968443)
(22.2757993882 0.691312150671 0.449080302496)
(22.3348123671 0.73552725319 0.530709731506)
(22.379548433 0.744481367715 0.628821904066)
(22.4029418751 0.723088269913 0.719028910532)
(22.3911088046 0.653791166202 0.783248547402)
(22.3934796432 0.582080287714 0.857786733796)
(22.3848480065 0.478948646884 0.916587298588)
(22.367058878 0.348714142166 0.95213550301)
(22.3596696842 0.217241589412 0.985331745207)
(22.3535365088 0.0664375199687 1.00009024129)
(22.221855919 0.613551012917 0.454668507167)
(22.303399874 0.653939351798 0.561152022642)
(22.3460211497 0.653686116512 0.650389103384)
(22.3799423259 0.627986852111 0.745548806159)
(22.3943691618 0.584676045916 0.818386758392)
(22.3997975316 0.514242951446 0.887356930629)
(22.4014330049 0.419705571787 0.950234931255)
(22.4027338716 0.3151794824 1.00103544078)
(22.3920433177 0.188305368387 1.02439767788)
(22.3806428041 0.0646784355275 1.02558301419)
(22.1619872257 0.535494332336 0.45292027581)
(22.2388275902 0.557910872191 0.557121650144)
(22.3005960199 0.561103582581 0.652186573039)
(22.3421081093 0.539219979004 0.739638650015)
(22.3685263202 0.497858978568 0.81580771347)
(22.382584157 0.449949341551 0.874005883479)
(22.3904946524 0.357975550332 0.935966887291)
(22.395327596 0.265284528303 0.981825663461)
(22.4019251028 0.176673863498 1.01753096128)
(22.3984153333 0.0541521369277 1.03053868545)
(22.0729343557 0.437381762214 0.435054249725)
(22.1575348622 0.456172400043 0.528891069287)
(22.2180870886 0.455325934752 0.611343033829)
(22.2731658839 0.440303833655 0.695935813441)
(22.3206575068 0.407314994673 0.780072685059)
(22.3481721711 0.364172595672 0.84294249743)
(22.3628936719 0.304556881829 0.893022506468)
(22.365882801 0.223061233288 0.928697582876)
(22.379571065 0.147232879712 0.966587645034)
(22.3866451441 0.0451374468667 0.988281069693)
(13.3510326668 -1.34792468915 -0.0540926820326)
(13.3769490593 -1.33739447258 -0.170175061529)
(13.2481942412 -1.32744167432 -0.270433627055)
(13.2042365935 -1.30665758434 -0.36540418938)
(13.0749212825 -1.27574957889 -0.477259350701)
(13.0502955784 -1.23692838373 -0.574895995155)
(12.8902385405 -1.19579721685 -0.669643945337)
(12.8655866904 -1.14412607752 -0.757576132194)
(12.8406914021 -1.07989301405 -0.848779459393)
(12.7206950907 -1.00774622941 -0.939940672613)
(17.177111134 -0.988011672406 -0.0393195759342)
(17.1217275649 -0.990052541024 -0.119727946262)
(16.9020311925 -1.0054515525 -0.200144563077)
(16.8222841813 -0.994506856801 -0.293498296856)
(16.7001904375 -0.987528789343 -0.366170687969)
(16.5394607121 -0.974082068981 -0.451305968676)
(16.3724618042 -0.955845943281 -0.532320496725)
(16.1100373319 -0.929511306848 -0.630946347658)
(15.9152612598 -0.898890925412 -0.710439642097)
(15.6761714475 -0.86067997694 -0.793830893308)
(19.4636502319 -0.561570506521 -0.0200255512116)
(19.3832940934 -0.575955467568 -0.0697509019764)
(19.2712548528 -0.59279115348 -0.126053765413)
(19.1603543231 -0.606722483366 -0.175571480138)
(19.0284307845 -0.618584137527 -0.232796545579)
(18.9201527485 -0.618279932281 -0.297730568817)
(18.7261243133 -0.63070964225 -0.359406060682)
(18.4845474042 -0.639622933981 -0.433628682466)
(18.2481939325 -0.641782992043 -0.505534101647)
(17.9900811177 -0.631822454188 -0.58696255392)
(20.6106899167 -0.219244942815 -0.0119716556716)
(20.5655518881 -0.233785828316 -0.0310634011389)
(20.4940995079 -0.255782299068 -0.0484370475738)
(20.4142305192 -0.275109975132 -0.0839114962076)
(20.30812647 -0.300632066889 -0.116979409641)
(20.2151843651 -0.31865436338 -0.154008293768)
(20.0836454129 -0.34264928551 -0.195683686928)
(19.8822577128 -0.370529966131 -0.257254013691)
(19.6730660299 -0.398505265271 -0.31394566989)
(19.4350710615 -0.413619490938 -0.38818063912)
(21.19408241 0.0334395194034 1.37647887124e-05)
(21.1456750797 0.0115986484151 0.000287303645997)
(21.110456466 -0.00653932698529 0.000523387122372)
(21.0435776097 -0.0349458795582 -0.0112554137297)
(20.9873554703 -0.0614284313059 -0.0187607032467)
(20.9033009209 -0.090556608572 -0.0454160286136)
(20.813824851 -0.120893037888 -0.070569173273)
(20.6649051647 -0.162124982008 -0.111356574567)
(20.5275878569 -0.193121579333 -0.156390332843)
(20.3338617818 -0.230317762581 -0.213662142497)
(21.5805397513 0.250702007289 0.0201552344225)
(21.5472186786 0.230828301068 0.024714836967)
(21.5076607333 0.204644831845 0.0387334705061)
(21.4548849601 0.168189847347 0.0570219263124)
(21.3975401307 0.132836001971 0.0555888748284)
(21.33217444 0.0948665149999 0.048926991096)
(21.2370780125 0.0508205900231 0.0268814753087)
(21.1405106323 0.00452464404703 0.00832026464696)
(21.0315527852 -0.0356957466406 -0.026816292978)
(20.8811048727 -0.0792921778552 -0.0766184411359)
(21.8565624573 0.443202000012 0.0228285318197)
(21.8384613362 0.425637021561 0.0597041314707)
(21.8004209927 0.393157472952 0.0878410654048)
(21.7589845199 0.35807459255 0.10362062096)
(21.705658038 0.308001778783 0.132395283756)
(21.6348306136 0.257655518362 0.130314682215)
(21.5586063871 0.208044019179 0.120145264642)
(21.4659772725 0.151887122814 0.104161690436)
(21.3706476866 0.0989261348437 0.0810901484188)
(21.2452799015 0.0453652487836 0.0398262714642)
(22.0782055885 0.625255856709 0.029250831382)
(22.0524631289 0.60081810777 0.0735783726883)
(22.022413733 0.565507912621 0.122976963687)
(21.990214298 0.52301769832 0.171952401341)
(21.9371680714 0.467759382768 0.197929220508)
(21.8792611762 0.412796340533 0.207406992446)
(21.8083120301 0.352085921275 0.20752490757)
(21.7352715997 0.291557879217 0.20238025174)
(21.640597228 0.21915066946 0.190421801701)
(21.5246048658 0.158857775846 0.146946828324)
(22.2325603122 0.77874173125 0.0348967938785)
(22.2234856581 0.76217052947 0.104755962336)
(22.19843712 0.725499506436 0.160926028626)
(22.1618810155 0.673858846104 0.215641640143)
(22.1231530073 0.616794804564 0.260683981262)
(22.0720867033 0.553217466516 0.284172298123)
(22.0072683405 0.484919527592 0.290345640342)
(21.9292802019 0.404186509337 0.297632761556)
(21.85637291 0.344144289642 0.277309695425)
(21.7543799121 0.267380745619 0.248946120773)
(22.3303923326 0.898524357995 0.0374286551328)
(22.3143175181 0.872949139004 0.122993711233)
(22.2973136104 0.837748415925 0.191639048458)
(22.2786371472 0.795522171978 0.255934634145)
(22.2555203987 0.742924619269 0.314017450049)
(22.2160520356 0.674835185652 0.355312174752)
(22.159665463 0.595376657409 0.37913163525)
(22.099366483 0.521403374692 0.38390144292)
(22.0089047575 0.436777358078 0.366298482299)
(21.9362317584 0.361554947833 0.349509426689)
(12.6798748355 -0.928959511426 -1.0207454795)
(12.763420738 -0.8484342016 -1.08490332491)
(12.8336074247 -0.773416791308 -1.13517508587)
(12.9492316164 -0.674646817486 -1.19038426877)
(12.968675561 -0.568318907207 -1.24293416575)
(13.1052710453 -0.471859325901 -1.27693775817)
(13.2458598931 -0.377529508542 -1.3014300815)
(13.2849647118 -0.268170015796 -1.32568394981)
(13.2860290205 -0.161001086596 -1.34210524396)
(13.2875648037 -0.0561966564482 -1.35014131851)
(15.6956175696 -0.791935620887 -0.860295882523)
(15.9237252527 -0.708580391046 -0.899891540751)
(16.1733187093 -0.626365879119 -0.92618290088)
(16.3651550102 -0.549446541737 -0.947312592121)
(16.531166064 -0.462681085416 -0.96893321367)
(16.7453503107 -0.376194662917 -0.977374861023)
(16.9161073583 -0.288444501215 -0.983614063313)
(17.0396069688 -0.203632374099 -0.98731786633)
(17.1663887595 -0.113600103854 -0.984592764961)
(17.1870814543 -0.0404429037019 -0.9863255367)
(17.9453475954 -0.592860297317 -0.635001085572)
(18.2454352495 -0.510863930032 -0.637709203265)
(18.5016045173 -0.43972413596 -0.631513276239)
(18.6900353242 -0.366149601896 -0.633164019703)
(18.8991935242 -0.298407903486 -0.62081794908)
(19.0763933471 -0.230603556709 -0.608894545874)
(19.1888492716 -0.172197588343 -0.600846282291)
(19.3172673921 -0.123834920412 -0.582812444189)
(19.3670087137 -0.0741119828491 -0.577653873408)
(19.4492424205 -0.0241037724242 -0.562880993133)
(19.4294752169 -0.389631800017 -0.41412243768)
(19.6698353684 -0.316580207677 -0.397198375979)
(19.8955687641 -0.25192300507 -0.370169119827)
(20.0487270309 -0.20477602881 -0.346774520305)
(20.1727030125 -0.157521550236 -0.327961978358)
(20.317093313 -0.114253412827 -0.298089291474)
(20.4123032788 -0.0812324026149 -0.275526748938)
(20.4869380683 -0.0576653385511 -0.254674437841)
(20.54575237 -0.0381666250039 -0.236735211528)
(20.599212614 -0.00893801951477 -0.220946137901)
(20.349979959 -0.214163431507 -0.223744548657)
(20.5158077561 -0.158543372065 -0.195569377366)
(20.6671485669 -0.110687187621 -0.161624613903)
(20.7840842586 -0.0756355794407 -0.128248260853)
(20.8801156001 -0.0484947600603 -0.0965025899657)
(20.9740160542 -0.0236137235663 -0.0633393109216)
(21.0450876132 -0.0124012535005 -0.0327557466486)
(21.105757861 -0.00247363209616 -0.00623193926318)
(21.1570737692 -0.00144426311575 0.0179538486267)
(21.1872166429 -0.00250489816784 0.0325266605604)
(20.8831975739 -0.0783363963695 -0.0766026798587)
(21.0227457603 -0.0302091327102 -0.0366067210284)
(21.1527249107 0.00675235787994 0.0114472656869)
(21.2407132341 0.0304800879934 0.0511239595514)
(21.3249478199 0.0378555987777 0.0980741003212)
(21.38879326 0.0530238621457 0.131196148848)
(21.4592082243 0.0561678587804 0.172025586349)
(21.5066811819 0.0434216741458 0.205052510795)
(21.5447000048 0.0308373483319 0.230750408597)
(21.5743983057 0.0046276732363 0.250518981131)
(21.253992209 0.0373204944519 0.0524582426671)
(21.3709909426 0.0797686633674 0.100276181978)
(21.4746798691 0.110657276102 0.152717390672)
(21.5583222281 0.124028262826 0.206553422577)
(21.6434099046 0.125029562352 0.266405877067)
(21.7036487579 0.123417847133 0.311950424548)
(21.7550067842 0.107272714801 0.356595023824)
(21.7997090822 0.0929395808074 0.393719570991)
(21.8310485352 0.0555339873885 0.424382616693)
(21.8606436556 0.0187780531603 0.448367360803)
(21.5238479412 0.142031873615 0.163072609611)
(21.639393173 0.184165520573 0.223588531847)
(21.7293720342 0.197237018724 0.291940457803)
(21.8200903202 0.214939760333 0.35647424799)
(21.8750843819 0.199642640718 0.415045232416)
(21.9334239585 0.184928199177 0.471957161037)
(21.9912185659 0.172261855952 0.525405491672)
(22.0234064507 0.121735003238 0.569163676901)
(22.0546355812 0.0803965580948 0.604122802242)
(22.0714148403 0.0265623253178 0.623870160215)
(21.7582270713 0.247020925712 0.272063687242)
(21.8461042179 0.276231203038 0.33781793547)
(21.9305646413 0.293958276404 0.408797160851)
(22.0056901801 0.29253848104 0.483918885411)
(22.0738650896 0.278621417108 0.558627124971)
(22.1253374445 0.254636724675 0.621904515446)
(22.1644280219 0.219212206686 0.676089413655)
(22.18624898 0.160907362426 0.717947586823)
(22.2092440661 0.103292947194 0.753620723197)
(22.2364665485 0.0282801070977 0.785542367708)
(21.9367360108 0.33864533295 0.372307033003)
(22.0233040083 0.372248359919 0.444860518711)
(22.0939521737 0.375093790712 0.524549346025)
(22.1546152114 0.371062750352 0.597336882262)
(22.2111636246 0.350744775812 0.673837498507)
(22.2495567832 0.305831799947 0.741514260347)
(22.2930965889 0.262858479008 0.807752623271)
(22.3075692768 0.192105019556 0.849063442265)
(22.3225329519 0.116472292484 0.883653682972)
(22.3337267366 0.0380320500112 0.904254325414)
(8.52617714147 -1.38867279572 -0.0469365755165)
(8.52884132587 -1.37937952844 -0.161174480521)
(8.67017750434 -1.36769395464 -0.270484976381)
(8.74283804579 -1.3411711732 -0.390480437374)
(8.85939903782 -1.31391219435 -0.485402595481)
(8.95796847236 -1.27305283345 -0.591288167821)
(9.03056664624 -1.2253991103 -0.688657073628)
(9.07266107417 -1.16800406293 -0.783546248949)
(9.15848725671 -1.10545991543 -0.872481614325)
(9.29643332942 -1.03188294606 -0.962781340645)
(4.60718142749 -1.10195705647 -0.0434527971396)
(4.65624750619 -1.10033418777 -0.133117319614)
(4.88229010875 -1.11106384168 -0.229746021977)
(5.0180629612 -1.10540460094 -0.314146292664)
(5.16412655485 -1.09236268865 -0.403879746498)
(5.27401047662 -1.0664641266 -0.493357515203)
(5.49352902718 -1.03800312184 -0.595511150675)
(5.68666799123 -1.00561583832 -0.680953782299)
(5.9403824404 -0.9684772729 -0.769268124729)
(6.12275809877 -0.922393789275 -0.845213733375)
(2.15569093392 -0.725146715329 -0.027423087571)
(2.27390849308 -0.743696900571 -0.0916816812419)
(2.35900025793 -0.749808620789 -0.155682812164)
(2.46067304049 -0.753179986508 -0.221949745941)
(2.5838241973 -0.756154608851 -0.283774594016)
(2.76401210602 -0.759335962913 -0.357962887239)
(2.93387743617 -0.753744097346 -0.431640334303)
(3.18830372328 -0.750884090925 -0.513979967345)
(3.45042436083 -0.741946141771 -0.593630970848)
(3.69313098676 -0.724008507974 -0.667881075329)
(1.03570015153 -0.459327497414 -0.0167388045573)
(1.09115771535 -0.471627486689 -0.0590287038366)
(1.1516504475 -0.48145917188 -0.1020611106)
(1.22009858527 -0.490150410389 -0.14304628196)
(1.28836831368 -0.493110949226 -0.189824435435)
(1.40004883273 -0.502081177642 -0.240760159715)
(1.5493789877 -0.513127017992 -0.297251257801)
(1.72175439274 -0.520580123853 -0.360391264253)
(1.91995458186 -0.528012538333 -0.423236164489)
(2.16398746317 -0.532680940136 -0.494800449285)
(0.547020519194 -0.300709553017 -0.0132879589459)
(0.575388491664 -0.308863344467 -0.0409123256053)
(0.603280855218 -0.314861302047 -0.0660098390876)
(0.649736226679 -0.324501662953 -0.0950854947867)
(0.707615477781 -0.333200109124 -0.130865980315)
(0.770890495948 -0.340923785676 -0.165455475161)
(0.864119738884 -0.353768548698 -0.20423410791)
(0.975243299694 -0.365192537202 -0.248990191489)
(1.09180622273 -0.370697719012 -0.297359124961)
(1.28477967216 -0.386802811861 -0.358265664752)
(0.315429822276 -0.204706661215 -0.00921164720252)
(0.326619455243 -0.208255336307 -0.0274273998008)
(0.348939123106 -0.215295930116 -0.0461393829442)
(0.379646953111 -0.223414858342 -0.0686265704173)
(0.413361016073 -0.230672494823 -0.091265236167)
(0.45286070688 -0.237176224129 -0.116495927149)
(0.510041656426 -0.247076285071 -0.145742056828)
(0.585633833906 -0.258568365038 -0.180281025608)
(0.671371117261 -0.27003042962 -0.21567719119)
(0.782661730653 -0.281603781306 -0.259171539521)
(0.178099755367 -0.134974712936 -0.0046202686989)
(0.186958369253 -0.138749361506 -0.018160346115)
(0.202402288001 -0.145119199903 -0.0311705702196)
(0.221819959279 -0.151775784839 -0.0464418287209)
(0.24808916099 -0.15978613954 -0.0644008270245)
(0.274971933406 -0.166370602839 -0.0822597971415)
(0.315284313643 -0.175636003693 -0.105216671922)
(0.364864717808 -0.186362611157 -0.129907112728)
(0.428255739028 -0.197166678917 -0.160315850723)
(0.508317189701 -0.209742788255 -0.194783201276)
(0.0967097966119 -0.0851019611241 -0.00315858686504)
(0.102723013186 -0.0883029326104 -0.012102395358)
(0.114156113245 -0.0941915938595 -0.0215171253577)
(0.126046181968 -0.0993946790586 -0.0311095232814)
(0.142836375347 -0.106401112263 -0.0420004290102)
(0.169392772646 -0.116160465487 -0.0584907906981)
(0.196443113481 -0.125195085425 -0.0735155238565)
(0.235567875138 -0.136669852192 -0.0940543774119)
(0.281393225083 -0.147478279331 -0.117749737471)
(0.336267124571 -0.156898350523 -0.146046293347)
(0.0497968075085 -0.0509781555677 -0.00234044032383)
(0.0556225072313 -0.0551168079291 -0.00750530213785)
(0.0617835352704 -0.0589509372716 -0.0128415961022)
(0.0716452591547 -0.0645509438602 -0.020307986791)
(0.0832849361435 -0.0703232571843 -0.0287936234456)
(0.0974304503293 -0.0764237666386 -0.0386283389507)
(0.118612339203 -0.0848526761902 -0.0518481170853)
(0.144350995041 -0.093995079139 -0.0668372407195)
(0.17901338638 -0.104320935672 -0.0862692990353)
(0.22333682986 -0.116927761941 -0.108458407283)
(0.0263964515063 -0.0310609563585 -0.00168230374729)
(0.0294626184278 -0.0336626333397 -0.004447475285)
(0.0331889622565 -0.0362721749554 -0.00858935468418)
(0.0378403368457 -0.0394170087679 -0.0122258358826)
(0.0467742697491 -0.0449864094179 -0.0186705103009)
(0.056965902652 -0.0506581649317 -0.02555266387)
(0.0707280979656 -0.0577316718358 -0.0341190304329)
(0.0912223217995 -0.0669064530471 -0.0466841432619)
(0.116515673648 -0.0764845815135 -0.0618220689022)
(0.148360272933 -0.0863315560765 -0.0803961043636)
(9.27473276157 -0.961965265142 -1.03134571998)
(9.06074193213 -0.877599815643 -1.09659578641)
(9.00892751732 -0.783108221923 -1.16428593864)
(8.98419320835 -0.690814854052 -1.22062567853)
(8.88711889685 -0.583135854952 -1.27279565737)
(8.82693410638 -0.488649840129 -1.31060903992)
(8.68884553008 -0.387718615626 -1.33902423513)
(8.61951769247 -0.277326487543 -1.36371574754)
(8.64946230519 -0.16975890382 -1.38275636758)
(8.62862475531 -0.0580534140023 -1.39185971835)
(6.15956085989 -0.845604250618 -0.926295810629)
(5.92149680056 -0.766156810339 -0.968729294007)
(5.68915238559 -0.67651782852 -1.00907440019)
(5.56003874142 -0.593121201749 -1.04726605781)
(5.35919739552 -0.500538118161 -1.07275615656)
(5.11939890382 -0.396847014023 -1.08917951583)
(4.9403199326 -0.317321737742 -1.09545847338)
(4.74672970457 -0.225078306852 -1.09584134798)
(4.66689606052 -0.134046757208 -1.10182029221)
(4.52232046065 -0.0376873720355 -1.09250220852)
(3.74098837668 -0.677424423607 -0.724252386669)
(3.42471577298 -0.585573548326 -0.742908422486)
(3.14051565439 -0.50491147694 -0.747879667452)
(2.9595856544 -0.438625789322 -0.75545246626)
(2.80789139005 -0.366093643289 -0.764852555095)
(2.63177363351 -0.291192625913 -0.763051259775)
(2.47559829078 -0.219984941129 -0.756729340576)
(2.34695701266 -0.153974633087 -0.747907107175)
(2.27529263834 -0.0852271123337 -0.74516109548)
(2.19132944103 -0.0306041070233 -0.732950739111)
(2.17840817539 -0.501940102267 -0.529919620006)
(1.92070891504 -0.422865557319 -0.52851694276)
(1.71053062253 -0.358082389912 -0.519379363487)
(1.5827887855 -0.302072815171 -0.520351229141)
(1.44035164449 -0.245712245796 -0.510973252472)
(1.31738562459 -0.191735925423 -0.500403759537)
(1.20117778799 -0.142485498555 -0.484858974462)
(1.12752742045 -0.0993575721015 -0.475130387568)
(1.08296445872 -0.0602611980173 -0.469157127435)
(1.04474504342 -0.0180966759509 -0.461953632054)
(1.29222619638 -0.359662321788 -0.388400198038)
(1.09800286773 -0.299027296203 -0.371621966462)
(0.961287254611 -0.25034126742 -0.359334123404)
(0.857822807736 -0.203846445867 -0.351888649033)
(0.774328749918 -0.166017998361 -0.34208250635)
(0.704600940664 -0.129962193847 -0.33255889561)
(0.648188629882 -0.0978461798585 -0.323207286685)
(0.607015757919 -0.067493305089 -0.316025316306)
(0.580218118834 -0.0413545432107 -0.310700179479)
(0.553055814995 -0.012890168734 -0.303146764473)
(0.782165132309 -0.260220484907 -0.280357493067)
(0.661964884398 -0.214976218346 -0.26637458328)
(0.580622250886 -0.178145645293 -0.257843962483)
(0.512336360935 -0.145847829407 -0.248206696645)
(0.453287590325 -0.117189798082 -0.237145110676)
(0.415885799736 -0.0925202289741 -0.231392778749)
(0.378365960413 -0.0672167557105 -0.22330530976)
(0.349454968889 -0.0459275730211 -0.215653709003)
(0.327821254903 -0.027099279729 -0.209000912474)
(0.313578562991 -0.00940969909694 -0.203938324057)
(0.513953006603 -0.195817941915 -0.211794426091)
(0.423684541583 -0.158346252778 -0.196357968193)
(0.371738955924 -0.131912053191 -0.188821762349)
(0.320205266439 -0.105042294555 -0.178536412914)
(0.279423220839 -0.0814869224564 -0.169260337786)
(0.246303284805 -0.0624932620801 -0.159725455616)
(0.22054974037 -0.0468459405555 -0.15114686551)
(0.203433628605 -0.0335574614858 -0.14529277883)
(0.186777695312 -0.0183161089589 -0.138751403245)
(0.176727422416 -0.00537133341195 -0.134219748722)
(0.338882294888 -0.146985074129 -0.157723763099)
(0.277470821367 -0.117426555836 -0.145212054908)
(0.232209521368 -0.094958563964 -0.133904388925)
(0.19346790389 -0.073966899219 -0.122963668872)
(0.165399660152 -0.0571704655231 -0.114225812633)
(0.144158665749 -0.044805083772 -0.106176441512)
(0.126311159965 -0.0311317128802 -0.0995949935499)
(0.115732226033 -0.0207868992157 -0.0954359328683)
(0.105142409956 -0.0124611459046 -0.0899099005353)
(0.0960383607378 -0.00354874337336 -0.084581577142)
(0.223296454362 -0.108726804763 -0.116654217719)
(0.181085161185 -0.0872013349223 -0.105227352984)
(0.146499105761 -0.0664696247659 -0.0958825096289)
(0.121060245797 -0.0514675099247 -0.0870328226535)
(0.099902600545 -0.0389413561489 -0.0782057947693)
(0.0834586413783 -0.0283991237209 -0.0706370036704)
(0.0715278587185 -0.0209393100663 -0.0642829102267)
(0.0605532361199 -0.0127307276564 -0.0580117680156)
(0.0552650710325 -0.00735664250887 -0.0548704097564)
(0.05126444783 -0.00250509147967 -0.0521597269841)
(0.150519229901 -0.081480233022 -0.0871088135089)
(0.115040906966 -0.0618333160342 -0.0750955862591)
(0.0904452856745 -0.0469495468245 -0.066054163447)
(0.0694600108615 -0.0345820912047 -0.0563738023965)
(0.0550923902827 -0.0250456686767 -0.0493116387805)
(0.0460022271683 -0.0186524110111 -0.0443496119185)
(0.0387698347464 -0.0127442299266 -0.0401082572021)
(0.0323656369997 -0.00799765473495 -0.0356321350922)
(0.0291331092221 -0.00469476116959 -0.033301765336)
(0.0263720741342 -0.00160920268474 -0.0310293177134)
(0.0135448344712 -0.0182431141932 -0.000743747934793)
(0.00734278673609 -0.0110356455445 -0.000764443627251)
(0.00439389567789 -0.0070727862833 -0.000562444662285)
(0.00267776746687 -0.00432124616508 -0.000330669745422)
(0.00182951197553 -0.00267571694641 -0.000202576735147)
(0.00142463920356 -0.00167229393848 -0.000188501886722)
(0.00124064284274 -0.00104819930088 -0.000148316602666)
(0.00115382177126 -0.000619301279162 -0.000115017554402)
(0.00112568355794 -0.000334913211697 -8.91258486401e-05)
(0.00111928537303 -0.000111943004287 -0.00010302444237)
(0.0149212366915 -0.0195089703885 -0.00288863959744)
(0.00823323845747 -0.0120090594099 -0.00208242000744)
(0.00467201642072 -0.00735847668857 -0.00139952638327)
(0.00289350001673 -0.00461504010832 -0.000989335391087)
(0.00198179147131 -0.00292573954176 -0.000771912657064)
(0.00149417453518 -0.00180101817166 -0.000601073211021)
(0.00126688483392 -0.00109836189431 -0.000460623989076)
(0.00116774100087 -0.000648708598756 -0.000393200662823)
(0.00113156492565 -0.000346171109631 -0.000352103753848)
(0.00112300236775 -9.90107965619e-05 -0.000337014812589)
(0.0170769393802 -0.0213696552731 -0.00509319814273)
(0.00966915368475 -0.0133692929442 -0.00389577111829)
(0.0056131827628 -0.00841567175252 -0.00266514658708)
(0.00347231173415 -0.0053586873059 -0.00191666064382)
(0.00221652694107 -0.00319470805647 -0.00142175704294)
(0.00166021016105 -0.00204042826549 -0.00112018951592)
(0.00137503332802 -0.00127304034609 -0.000923077728506)
(0.00122742039015 -0.000740794054377 -0.000766638081922)
(0.00116894264231 -0.000398055519595 -0.000674367830584)
(0.00114213933755 -0.000115054147565 -0.000611124142644)
(0.0209072297039 -0.0244132476693 -0.00839548939167)
(0.0115679570066 -0.0149771415643 -0.00592301440498)
(0.00680039459288 -0.00947712556216 -0.00428166653209)
(0.00424190180189 -0.00614479225836 -0.00309744090005)
(0.00269442669426 -0.00372036701842 -0.0023207123639)
(0.00198118439199 -0.00240349501748 -0.00186108386626)
(0.00159009921875 -0.00152108311066 -0.00152835669245)
(0.00136082548155 -0.000875900917149 -0.00124815777649)
(0.00126407049338 -0.000480419799405 -0.0010937064753)
(0.00123767229589 -0.000145853638686 -0.00107061611119)
(0.0249867856199 -0.0271512644509 -0.0120155319783)
(0.0144769567134 -0.0172171853893 -0.00869491239278)
(0.00872967552818 -0.0111154666559 -0.00636924407185)
(0.0054452431071 -0.00714300113276 -0.00477292106263)
(0.0035344252249 -0.00447802565655 -0.00365536217717)
(0.00253810044912 -0.00295498228942 -0.00285091048001)
(0.00192805049084 -0.0018014217048 -0.00230146898595)
(0.00167758729555 -0.00114282846098 -0.00206467264488)
(0.00150699432682 -0.000579672433921 -0.00183790675176)
(0.00143144733883 -0.000196215178741 -0.00170120141223)
(0.0315092733818 -0.0311661610631 -0.0172241363436)
(0.019103735712 -0.0204469500427 -0.0126702884226)
(0.0118319769249 -0.0135581832118 -0.00928060417229)
(0.00762678630513 -0.0088761637131 -0.00726081256908)
(0.00509392618615 -0.00573493268045 -0.00571399934)
(0.00358767481243 -0.00368998232391 -0.00456932789624)
(0.00277218762146 -0.00243404926382 -0.00381765500887)
(0.00220853499431 -0.00139861663479 -0.00318280020187)
(0.00196916668629 -0.000789446447674 -0.00288812169832)
(0.00183054373991 -0.000249141056377 -0.00267363213098)
(0.0411048727753 -0.0367241372787 -0.0239696528738)
(0.025061801171 -0.023932188575 -0.0177726475867)
(0.0165802105444 -0.016501024633 -0.013828566677)
(0.0109641768113 -0.0109877774004 -0.0108558445425)
(0.00727336894382 -0.00710866654048 -0.0083800137917)
(0.00534173000484 -0.00468394762196 -0.00701661592061)
(0.0041592532712 -0.00318667620469 -0.00595376617511)
(0.00340385609902 -0.00197626815313 -0.00521660733717)
(0.00297021483455 -0.00107508608598 -0.00473331891913)
(0.00275031377192 -0.000253586761191 -0.00446673342178)
(0.0515931197732 -0.0417628381216 -0.0314491347538)
(0.035278458451 -0.029448527447 -0.0256630386977)
(0.0238770803882 -0.0202417966153 -0.0204342706994)
(0.0157945736626 -0.0133657282851 -0.0157914110532)
(0.0116342033129 -0.00935729951923 -0.0131971331683)
(0.0086306101263 -0.00636912475566 -0.010953849517)
(0.00660495368757 -0.00418521101321 -0.00921215770372)
(0.00544587465923 -0.00256344368846 -0.00818836018594)
(0.00477257878833 -0.00156070789731 -0.00747193025531)
(0.00421043858541 -0.000455285587465 -0.00677040087612)
(0.0730817236449 -0.0511742205762 -0.04554955224)
(0.047883536214 -0.0349789372081 -0.0350526587685)
(0.0348353694523 -0.0253380802752 -0.0291986333755)
(0.0251531271501 -0.0178786430031 -0.0239877044008)
(0.0193888667297 -0.0128158029267 -0.0207398464958)
(0.0146320527853 -0.00870170349643 -0.0173935403502)
(0.0115887967652 -0.00586931592094 -0.0150110556603)
(0.00953790942142 -0.00374338119104 -0.0132300793894)
(0.00828916415682 -0.00201561608604 -0.0120904777516)
(0.00782108506422 -0.000830269235963 -0.0116463318276)
(0.098686743663 -0.0609200758815 -0.0610693356007)
(0.071031620798 -0.0439262972694 -0.0506211542542)
(0.053330821036 -0.0326767559263 -0.0426287561567)
(0.0411094373364 -0.0240937444675 -0.0366867592868)
(0.0313705152158 -0.017257223352 -0.031024870986)
(0.0239535338627 -0.0115431238665 -0.026251944131)