/*--------------------------------*- C++ -*----------------------------------*\
  =========                 |
  \\      /  F ield         | OpenFOAM: The Open Source CFD Toolbox
   \\    /   O peration     | Website:  https://openfoam.org
    \\  /    A nd           | Version:  6
     \\/     M anipulation  |
\*---------------------------------------------------------------------------*/
FoamFile
{
    version     2.0;
    format      ascii;
    class       volScalarField;
    location    "0.00990509115";
    object      rho;
}
// * * * * * * * * * * * * * * * * * * * * * * * * * * * * * * * * * * * * * //

dimensions      [1 -3 0 0 0 0 0];

internalField   nonuniform List<scalar> 
101600
(
8.92611794983e-08
8.92600513107e-08
8.9230153787e-08
8.91356847642e-08
8.89974691662e-08
8.88573824836e-08
8.87285901912e-08
8.85968845521e-08
8.84276151141e-08
8.82655626807e-08
8.9229221152e-08
8.92116968938e-08
8.91751924491e-08
8.90804031266e-08
8.89460285836e-08
8.88082961073e-08
8.86757643194e-08
8.85292216288e-08
8.8344706646e-08
8.81750790699e-08
8.91633780029e-08
8.91336329093e-08
8.90939398092e-08
8.90106465506e-08
8.88946162007e-08
8.87670368539e-08
8.86240298893e-08
8.84549062579e-08
8.82604531863e-08
8.80996374478e-08
8.90773841324e-08
8.9045144764e-08
8.90054187295e-08
8.89269379392e-08
8.88201709753e-08
8.86976276093e-08
8.85477565309e-08
8.83712548838e-08
8.81785353027e-08
8.80246920156e-08
8.89831195928e-08
8.89547052987e-08
8.89134430943e-08
8.88301048973e-08
8.87163357025e-08
8.85882364218e-08
8.84405075653e-08
8.82741547004e-08
8.80952346456e-08
8.79464069835e-08
8.88849478073e-08
8.8856443623e-08
8.88076111846e-08
8.87178335341e-08
8.85958537639e-08
8.84644062927e-08
8.83250881551e-08
8.81742600824e-08
8.80146399308e-08
8.78726601294e-08
8.87716505037e-08
8.87331996905e-08
8.86673687755e-08
8.85697642662e-08
8.84521986781e-08
8.83334818337e-08
8.82109583206e-08
8.80802876007e-08
8.79450623966e-08
8.78179779918e-08
8.86261463968e-08
8.85693476448e-08
8.84847099372e-08
8.83807797624e-08
8.82754124634e-08
8.8181157685e-08
8.80908402831e-08
8.79911943376e-08
8.78823052548e-08
8.77738939498e-08
8.8440249892e-08
8.83705848874e-08
8.8279331982e-08
8.81782009365e-08
8.80909515948e-08
8.80226438526e-08
8.79632384746e-08
8.78967484433e-08
8.78181541215e-08
8.77295616981e-08
8.82684949784e-08
8.81889976259e-08
8.81045521859e-08
8.80131614612e-08
8.79405333168e-08
8.78879899604e-08
8.78418318369e-08
8.77915863009e-08
8.77356710019e-08
8.76605889529e-08
9.01750842338e-08
9.01710577381e-08
9.01249979841e-08
9.0009341734e-08
8.98486835302e-08
8.96839920875e-08
8.95254270169e-08
8.93575962757e-08
8.9146578284e-08
8.89516634516e-08
9.0129323034e-08
9.01118118283e-08
9.00586324915e-08
8.99376955836e-08
8.97773349282e-08
8.96183529961e-08
8.94584269069e-08
8.92730404799e-08
8.90470852827e-08
8.88452375911e-08
9.00468656254e-08
9.00170176961e-08
8.99547491452e-08
8.98372119487e-08
8.9693541162e-08
8.95473832469e-08
8.93778927252e-08
8.91718294892e-08
8.89418702863e-08
8.87516712672e-08
8.99427495759e-08
8.99071182189e-08
8.98390377607e-08
8.97219267581e-08
8.95872193271e-08
8.9444956616e-08
8.92689468177e-08
8.90600208032e-08
8.8835625936e-08
8.86531452581e-08
8.98293892411e-08
8.97946223075e-08
8.97277100296e-08
8.9610525177e-08
8.94682533602e-08
8.9314727709e-08
8.91375848031e-08
8.89379285353e-08
8.87265955583e-08
8.85496948823e-08
8.9706524587e-08
8.96696695933e-08
8.96041811935e-08
8.94915052099e-08
8.93425679172e-08
8.91801447281e-08
8.90053762806e-08
8.88162835617e-08
8.86227591446e-08
8.84545280098e-08
8.95585689874e-08
8.95086515195e-08
8.94323830711e-08
8.93214425627e-08
8.91801052506e-08
8.90283064257e-08
8.88691712892e-08
8.87016493715e-08
8.85346070316e-08
8.83833292257e-08
8.9374606537e-08
8.93026880679e-08
8.92075289503e-08
8.90932251563e-08
8.89657764054e-08
8.88394652553e-08
8.87179243893e-08
8.85909829895e-08
8.84575455497e-08
8.83276000417e-08
8.91497333742e-08
8.9063694595e-08
8.89586811083e-08
8.88450570774e-08
8.87375775815e-08
8.86419666122e-08
8.85590352444e-08
8.84758571219e-08
8.83823902895e-08
8.82764273307e-08
8.89455092817e-08
8.88477527318e-08
8.87469334594e-08
8.86418694518e-08
8.85539677617e-08
8.84803823008e-08
8.84142319873e-08
8.83512345422e-08
8.82869517433e-08
8.81968118409e-08
9.14747584104e-08
9.14575676131e-08
9.13861821048e-08
9.12497093992e-08
9.10711957907e-08
9.08780936848e-08
9.06743627228e-08
9.04517550653e-08
9.01857916833e-08
8.99497812892e-08
9.14061185878e-08
9.13749594993e-08
9.12950842255e-08
9.11513853511e-08
9.09727037827e-08
9.07895068085e-08
9.05879167253e-08
9.03479128239e-08
9.00690028948e-08
8.98235857085e-08
9.13028392852e-08
9.1257735564e-08
9.11620135201e-08
9.10109521775e-08
9.08423475216e-08
9.06723787134e-08
9.04665795099e-08
9.02142155351e-08
8.99383999876e-08
8.9704895826e-08
9.11809416275e-08
9.11276533345e-08
9.1020260624e-08
9.0861728163e-08
9.06955416026e-08
9.05253142162e-08
9.03150841134e-08
9.00664133687e-08
8.97996729045e-08
8.95751169134e-08
9.10475750237e-08
9.09938418845e-08
9.08903307235e-08
9.07336798432e-08
9.055644733e-08
9.03673531102e-08
9.01503489302e-08
8.99078500228e-08
8.9654323477e-08
8.94406078579e-08
9.08895158913e-08
9.08334537192e-08
9.07412622926e-08
9.05990511373e-08
9.04160460102e-08
9.02108053095e-08
8.99874141029e-08
8.97495552248e-08
8.95151685583e-08
8.93175711418e-08
9.06896025156e-08
9.06204754628e-08
9.05277862651e-08
9.03986042998e-08
9.02252483976e-08
9.00257973368e-08
8.98145471024e-08
8.96003036491e-08
8.93972787387e-08
8.92219791844e-08
9.04550161254e-08
9.03628812345e-08
9.02540603502e-08
9.01256105289e-08
8.99662943889e-08
8.97920516098e-08
8.96232767268e-08
8.94597653221e-08
8.92994066102e-08
8.91487098506e-08
9.01856105372e-08
9.0076814497e-08
8.9952483654e-08
8.98206141135e-08
8.96831399237e-08
8.9547318066e-08
8.9428393295e-08
8.93209585402e-08
8.9211102312e-08
8.9088524828e-08
8.99439601951e-08
8.98178715624e-08
8.96922652406e-08
8.95662969177e-08
8.94536991897e-08
8.93486147708e-08
8.92545727917e-08
8.91750141477e-08
8.91018529399e-08
8.89953559367e-08
9.33712933095e-08
9.33207271689e-08
9.32095520265e-08
9.30480598881e-08
9.28519267559e-08
9.26225680352e-08
9.23545625154e-08
9.2056927712e-08
9.17224563956e-08
9.14341607012e-08
9.32674386222e-08
9.31986068923e-08
9.30772786019e-08
9.29121306673e-08
9.27203333595e-08
9.250464169e-08
9.22428041207e-08
9.19313341654e-08
9.15854851645e-08
9.12795401359e-08
9.31349380017e-08
9.30496472319e-08
9.29091917681e-08
9.27292158092e-08
9.25376581208e-08
9.23310866296e-08
9.20724334741e-08
9.17602534551e-08
9.14217405954e-08
9.11240470804e-08
9.29915751539e-08
9.2897857962e-08
9.2742972221e-08
9.25475034202e-08
9.23465506419e-08
9.21318532857e-08
9.18703434488e-08
9.15676907942e-08
9.12404247369e-08
9.09538446161e-08
9.28303663326e-08
9.27383144285e-08
9.25876468039e-08
9.23905110922e-08
9.21726799099e-08
9.19323062634e-08
9.16580284221e-08
9.1358288609e-08
9.10481203722e-08
9.07839531218e-08
9.26201925541e-08
9.25299577344e-08
9.2395909393e-08
9.22147757976e-08
9.19899848902e-08
9.17286817452e-08
9.14418661496e-08
9.11444781714e-08
9.08609779063e-08
9.06276243867e-08
9.23503421967e-08
9.22529607365e-08
9.21284152648e-08
9.19658220596e-08
9.17489383968e-08
9.14886036884e-08
9.12111655585e-08
9.09416017006e-08
9.06989078771e-08
9.04978187529e-08
9.20543763247e-08
9.19365254481e-08
9.18003989763e-08
9.16411099472e-08
9.14355163692e-08
9.11987521576e-08
9.09665780291e-08
9.07559635689e-08
9.05664904953e-08
9.03954331817e-08
9.17330387097e-08
9.15937941027e-08
9.14362623073e-08
9.1269581942e-08
9.10872301853e-08
9.08974313337e-08
9.07268267471e-08
9.05826534379e-08
9.04530369856e-08
9.03150901855e-08
9.14441221393e-08
9.12763827911e-08
9.11115591389e-08
9.09492732804e-08
9.07969353859e-08
9.06478298965e-08
9.0515078213e-08
9.04096690143e-08
9.03225672919e-08
9.01970582136e-08
9.61741759651e-08
9.60669921848e-08
9.59001065311e-08
9.56983748246e-08
9.54664537173e-08
9.51800287108e-08
9.48272265371e-08
9.44390716357e-08
9.40223886522e-08
9.36650157977e-08
9.60268155562e-08
9.58990010256e-08
9.57225943676e-08
9.55252598651e-08
9.5305176752e-08
9.50328929018e-08
9.46869307237e-08
9.42869386346e-08
9.38552031795e-08
9.34654801713e-08
9.58518687798e-08
9.5708032875e-08
9.55180125096e-08
9.53095654775e-08
9.50829717599e-08
9.48103466373e-08
9.44683940652e-08
9.40720730641e-08
9.36439706655e-08
9.32562546798e-08
9.56686523708e-08
9.5518724786e-08
9.53178549733e-08
9.50933898057e-08
9.4848659989e-08
9.45594574967e-08
9.42122797907e-08
9.38258406973e-08
9.3408753326e-08
9.30347417167e-08
9.5454312213e-08
9.53105607754e-08
9.5109476774e-08
9.48750307382e-08
9.46103258839e-08
9.42971516275e-08
9.3938278814e-08
9.35563541471e-08
9.31650884716e-08
9.28267329549e-08
9.51698446251e-08
9.5036298911e-08
9.48451239271e-08
9.46123150155e-08
9.43371920091e-08
9.40100311068e-08
9.36475001836e-08
9.327728422e-08
9.292700847e-08
9.2635271855e-08
9.48195602611e-08
9.4689479677e-08
9.45074198384e-08
9.42819376855e-08
9.40073177442e-08
9.36833076167e-08
9.33366812796e-08
9.3005433418e-08
9.27108178634e-08
9.24631185619e-08
9.44531533233e-08
9.43054956029e-08
9.4113496417e-08
9.38887663222e-08
9.36197499144e-08
9.33170635005e-08
9.30163520355e-08
9.27496533784e-08
9.25212223351e-08
9.23134786059e-08
9.4059507038e-08
9.38824333158e-08
9.36683813705e-08
9.34386946977e-08
9.31948495835e-08
9.29432408036e-08
9.27091097003e-08
9.25122788317e-08
9.23513039929e-08
9.21861952183e-08
9.36977546752e-08
9.34756722213e-08
9.32543729563e-08
9.30351752049e-08
9.28277126418e-08
9.26247467449e-08
9.24405107879e-08
9.2290566972e-08
9.21726492089e-08
9.20149584179e-08
1.00267642421e-07
1.00093385737e-07
9.98627650744e-08
9.95951748247e-08
9.92823900326e-08
9.88951579262e-08
9.843055679e-08
9.79351745209e-08
9.74105544975e-08
9.69505075716e-08
1.00080749199e-07
9.98956558509e-08
9.96634189826e-08
9.94081908843e-08
9.91108355321e-08
9.87307815967e-08
9.82631796987e-08
9.77465055438e-08
9.71939309829e-08
9.66832746324e-08
9.98477589306e-08
9.96569806624e-08
9.94264357074e-08
9.91753886003e-08
9.88730854135e-08
9.84805243974e-08
9.800305898e-08
9.74765294879e-08
9.69146929385e-08
9.64011846716e-08
9.95850812054e-08
9.93940565347e-08
9.91620942306e-08
9.89056276299e-08
9.85891211701e-08
9.81786364678e-08
9.76908160272e-08
9.71666868079e-08
9.6611810743e-08
9.61127604956e-08
9.92722167661e-08
9.90895297077e-08
9.88480408228e-08
9.85730034895e-08
9.82423451511e-08
9.78265107735e-08
9.73446406205e-08
9.68357416242e-08
9.63154361128e-08
9.58557959028e-08
9.88896693875e-08
9.87214684847e-08
9.84674148431e-08
9.81651513347e-08
9.78214470627e-08
9.74176277471e-08
9.69660944034e-08
9.64953176208e-08
9.60321789529e-08
9.56225835229e-08
9.8454331335e-08
9.82937656582e-08
9.8028221892e-08
9.77032070489e-08
9.73505968781e-08
9.69656399327e-08
9.65543865183e-08
9.61465874148e-08
9.57586287058e-08
9.53994536238e-08
9.7999173392e-08
9.78153511087e-08
9.75319019355e-08
9.71998097456e-08
9.6848713333e-08
9.64856910348e-08
9.6123265858e-08
9.57881146905e-08
9.54845962007e-08
9.51803175666e-08
9.74855588791e-08
9.72599173512e-08
9.69620153149e-08
9.66387357397e-08
9.63189892851e-08
9.60051523544e-08
9.57044978797e-08
9.54367036351e-08
9.52114041967e-08
9.49686432206e-08
9.69982803175e-08
9.67093007343e-08
9.64153139767e-08
9.61201938912e-08
9.58469858514e-08
9.55849438294e-08
9.53359137963e-08
9.51130838376e-08
9.49288697041e-08
9.46986542622e-08
1.06129510296e-07
1.05895924291e-07
1.05600872393e-07
1.05237883351e-07
1.04785043058e-07
1.04234809175e-07
1.0361204116e-07
1.02965145447e-07
1.02267886038e-07
1.01634762157e-07
1.05918156926e-07
1.05700213057e-07
1.05422156283e-07
1.05074764835e-07
1.04628530569e-07
1.04067393154e-07
1.0341801738e-07
1.02725194211e-07
1.01980379267e-07
1.01277594198e-07
1.05613530625e-07
1.05414956014e-07
1.05156175618e-07
1.04824764585e-07
1.04377011224e-07
1.03793901405e-07
1.03112732607e-07
1.02383951687e-07
1.01613681152e-07
1.0090685424e-07
1.05221877923e-07
1.05035805255e-07
1.04784550051e-07
1.04458538181e-07
1.04009874598e-07
1.03420431907e-07
1.02730279856e-07
1.0199458419e-07
1.01222947029e-07
1.00527866487e-07
1.0475729516e-07
1.04575434959e-07
1.04304087435e-07
1.03955420562e-07
1.03506557507e-07
1.02943112501e-07
1.02290630856e-07
1.01586444254e-07
1.00851507725e-07
1.00186479518e-07
1.04244179554e-07
1.04061985416e-07
1.03747975057e-07
1.03348465818e-07
1.02891587743e-07
1.02375411402e-07
1.01798777764e-07
1.01166708569e-07
1.00501646564e-07
9.98756771217e-08
1.03694971939e-07
1.03499742522e-07
1.03138422709e-07
1.02688771565e-07
1.0222401671e-07
1.01752310811e-07
1.01251079206e-07
1.0071590185e-07
1.00149136957e-07
9.95740489738e-08
1.03098930593e-07
1.02856588739e-07
1.02458264397e-07
1.01995304304e-07
1.01538019959e-07
1.0109875919e-07
1.00660962591e-07
1.00219227132e-07
9.97639074429e-08
9.92610305057e-08
1.02388253543e-07
1.02087428307e-07
1.01681771781e-07
1.01244073249e-07
1.00830446178e-07
1.00443213083e-07
1.00068016506e-07
9.97026438903e-08
9.9352029425e-08
9.89387964975e-08
1.01699865243e-07
1.01320125759e-07
1.00933699392e-07
1.00543240034e-07
1.00187500134e-07
9.98520020438e-08
9.95213705122e-08
9.91967966542e-08
9.89001287094e-08
9.85282966558e-08
1.14608146901e-07
1.14331392494e-07
1.13957716879e-07
1.13462500407e-07
1.12821372171e-07
1.12052909983e-07
1.11202542811e-07
1.1030918009e-07
1.09318138055e-07
1.08394742217e-07
1.14389861534e-07
1.14161903851e-07
1.13827823475e-07
1.1334383122e-07
1.12685294191e-07
1.11877528052e-07
1.10970891807e-07
1.10002009411e-07
1.08941717514e-07
1.07922408207e-07
1.14007365506e-07
1.13831656747e-07
1.13524425848e-07
1.13044597945e-07
1.12372271687e-07
1.11535757634e-07
1.10586379553e-07
1.09565222539e-07
1.08467943004e-07
1.0744281515e-07
1.13455494735e-07
1.13311290847e-07
1.13012056309e-07
1.12530756124e-07
1.11860879841e-07
1.11033394468e-07
1.10088631386e-07
1.09061791372e-07
1.07956135451e-07
1.06939860724e-07
1.12793693881e-07
1.12644113554e-07
1.12319067807e-07
1.11819042207e-07
1.11162161282e-07
1.10381793094e-07
1.09496956757e-07
1.0851199117e-07
1.07443621682e-07
1.06453591621e-07
1.12083327877e-07
1.11893846101e-07
1.11508914908e-07
1.10969361067e-07
1.10325290484e-07
1.09611821626e-07
1.08821416406e-07
1.07924368624e-07
1.06938471932e-07
1.05987729323e-07
1.11322960839e-07
1.11068159333e-07
1.10609509671e-07
1.10030098217e-07
1.09404214893e-07
1.08758944149e-07
1.08065992107e-07
1.07292543379e-07
1.06431062955e-07
1.0554025244e-07
1.1047854531e-07
1.10134577324e-07
1.09616643313e-07
1.09027668629e-07
1.08429078156e-07
1.07842569536e-07
1.07248346482e-07
1.06610454049e-07
1.0589863968e-07
1.05096210493e-07
1.09473261199e-07
1.09051270089e-07
1.0851599048e-07
1.07949793859e-07
1.07405930265e-07
1.06893992286e-07
1.06397872154e-07
1.0588574993e-07
1.05335547638e-07
1.04653284559e-07
1.08500594039e-07
1.07985646097e-07
1.07471581172e-07
1.06951150628e-07
1.0646665668e-07
1.06008875394e-07
1.05561977793e-07
1.05111001009e-07
1.04662984104e-07
1.04074364903e-07
1.27315005798e-07
1.27023996859e-07
1.2653084346e-07
1.25841449471e-07
1.2496759466e-07
1.23936481032e-07
1.22769658009e-07
1.21488829405e-07
1.20034061001e-07
1.18655028172e-07
1.27101514925e-07
1.2687713132e-07
1.26432013064e-07
1.25744032595e-07
1.24828084663e-07
1.23730885881e-07
1.22482699621e-07
1.21096761526e-07
1.1953600153e-07
1.1800752954e-07
1.26641863045e-07
1.26485547501e-07
1.26059031524e-07
1.25345149334e-07
1.24383666818e-07
1.23241782279e-07
1.21948545941e-07
1.20507966714e-07
1.18898836692e-07
1.17355596007e-07
1.25931956224e-07
1.25814109359e-07
1.25386587474e-07
1.24649951145e-07
1.23670756645e-07
1.225295116e-07
1.21246318231e-07
1.19810219295e-07
1.18196022877e-07
1.16666772329e-07
1.25032726535e-07
1.24896138459e-07
1.24445238358e-07
1.23702652399e-07
1.22740325272e-07
1.21634979245e-07
1.20399794724e-07
1.19002425487e-07
1.17441326893e-07
1.15963434481e-07
1.24004041266e-07
1.23786112985e-07
1.23284640322e-07
1.22549761279e-07
1.21634255475e-07
1.20592515841e-07
1.19429285947e-07
1.1810784268e-07
1.16653248151e-07
1.1524986846e-07
1.22855985524e-07
1.22517233412e-07
1.21943337795e-07
1.21216246483e-07
1.20365815696e-07
1.19413676498e-07
1.18353051945e-07
1.17169683284e-07
1.15873208094e-07
1.14558525266e-07
1.21594740017e-07
1.21121207453e-07
1.20469736485e-07
1.19742311207e-07
1.18944063618e-07
1.18090961025e-07
1.17187859334e-07
1.16207386827e-07
1.15115817617e-07
1.13906315174e-07
1.20157188856e-07
1.19577922194e-07
1.18875542759e-07
1.18141920262e-07
1.17400299793e-07
1.16664663863e-07
1.15939598154e-07
1.15184148176e-07
1.14346506417e-07
1.13290195802e-07
1.18781320326e-07
1.18078134865e-07
1.17377098797e-07
1.16662518065e-07
1.15969686184e-07
1.15300705359e-07
1.14659709376e-07
1.14022758943e-07
1.13364854507e-07
1.12468424141e-07
1.46707957342e-07
1.46452849851e-07
1.45803539588e-07
1.44837109692e-07
1.43637411448e-07
1.42240242795e-07
1.40619841282e-07
1.3877435869e-07
1.36637955175e-07
1.34552278617e-07
1.46504845274e-07
1.46298186189e-07
1.4567935453e-07
1.44710520919e-07
1.43471622287e-07
1.42002456134e-07
1.40275334128e-07
1.38269601153e-07
1.35943351134e-07
1.33610480754e-07
1.45962749182e-07
1.45795307224e-07
1.45176113143e-07
1.44170507517e-07
1.42866081901e-07
1.41319857326e-07
1.39512870957e-07
1.37416933065e-07
1.35004877622e-07
1.32644292455e-07
1.4509168955e-07
1.44934966761e-07
1.44302481553e-07
1.43267222657e-07
1.41918547134e-07
1.40326365225e-07
1.38488304378e-07
1.36380674871e-07
1.33966476123e-07
1.31637508399e-07
1.43888254201e-07
1.43699369121e-07
1.4304733813e-07
1.42015626967e-07
1.40673776579e-07
1.39081859987e-07
1.37255587499e-07
1.35176139976e-07
1.32847362025e-07
1.30613540861e-07
1.42380147236e-07
1.42108205368e-07
1.41424111092e-07
1.40426356327e-07
1.39146075432e-07
1.37613607958e-07
1.35847647267e-07
1.33848143613e-07
1.31674257516e-07
1.29564946602e-07
1.40627587104e-07
1.40226750855e-07
1.39481424531e-07
1.3851321781e-07
1.37323468642e-07
1.35907489249e-07
1.34273009404e-07
1.32457530154e-07
1.30508094751e-07
1.28528630987e-07
1.38721759155e-07
1.38154017766e-07
1.37309408874e-07
1.36334862895e-07
1.35209720323e-07
1.33935716604e-07
1.32535914717e-07
1.31020850727e-07
1.29369218619e-07
1.27531613368e-07
1.36615375707e-07
1.35882049518e-07
1.34934901727e-07
1.33922993989e-07
1.32862755089e-07
1.317624194e-07
1.30639566282e-07
1.29469090338e-07
1.28193754252e-07
1.26571218694e-07
1.34589385987e-07
1.33644507123e-07
1.32664584133e-07
1.31650554909e-07
1.30644693745e-07
1.29646317044e-07
1.28665119292e-07
1.27679903287e-07
1.26661626208e-07
1.25289902993e-07
1.75712499032e-07
1.75517845903e-07
1.74720229486e-07
1.73421439357e-07
1.71724815378e-07
1.69704728135e-07
1.67355540393e-07
1.64665995784e-07
1.61511642905e-07
1.58288020553e-07
1.75533808938e-07
1.75339490691e-07
1.74541694159e-07
1.73246852585e-07
1.71537887516e-07
1.69451348192e-07
1.66946206573e-07
1.63988898353e-07
1.60509102512e-07
1.56909201959e-07
1.74870895664e-07
1.74656488104e-07
1.73832070447e-07
1.72517812401e-07
1.70760017567e-07
1.68563120797e-07
1.65885748809e-07
1.62721502348e-07
1.59067104385e-07
1.55432849777e-07
1.73743377172e-07
1.73497952865e-07
1.72641871447e-07
1.71304680496e-07
1.69497039521e-07
1.67207045868e-07
1.64418781743e-07
1.61170856273e-07
1.57482874108e-07
1.53898720406e-07
1.72090116188e-07
1.71812809383e-07
1.70922729506e-07
1.69563399861e-07
1.67733669878e-07
1.65420868841e-07
1.62633672722e-07
1.59416028808e-07
1.55838340353e-07
1.52374374643e-07
1.6992216352e-07
1.69601763964e-07
1.68666517975e-07
1.67285741561e-07
1.6547313326e-07
1.63228968092e-07
1.60562624734e-07
1.57504061585e-07
1.54160298923e-07
1.50851172566e-07
1.67333524702e-07
1.66918208067e-07
1.65901548907e-07
1.64493308958e-07
1.62735232892e-07
1.60632818379e-07
1.58184641112e-07
1.55440035564e-07
1.52452180373e-07
1.49325243839e-07
1.64468165268e-07
1.63852645249e-07
1.62693954495e-07
1.61248783681e-07
1.5955198727e-07
1.57629007676e-07
1.55504252715e-07
1.53197543529e-07
1.50668055176e-07
1.4777000372e-07
1.61276755332e-07
1.60377866098e-07
1.59054249351e-07
1.57570057943e-07
1.55983016203e-07
1.54304475273e-07
1.52548133571e-07
1.50704206576e-07
1.48718429265e-07
1.46164400942e-07
1.58108546912e-07
1.56833538152e-07
1.5544876109e-07
1.53986455606e-07
1.52508309673e-07
1.50993708553e-07
1.49435038328e-07
1.47827128126e-07
1.46181477236e-07
1.44035676953e-07
2.17106209534e-07
2.1691770512e-07
2.15967979511e-07
2.14298285658e-07
2.11889760784e-07
2.08836861881e-07
2.05236592391e-07
2.01134556054e-07
1.96352990247e-07
1.91312235068e-07
2.16959909348e-07
2.16745776186e-07
2.1578479455e-07
2.1411511449e-07
2.11683033999e-07
2.08525631492e-07
2.04689134783e-07
2.00199845486e-07
1.94952828955e-07
1.89387413506e-07
2.160543967e-07
2.15805535085e-07
2.14791644637e-07
2.13086397408e-07
2.10601640042e-07
2.07306877214e-07
2.03212105783e-07
1.98383953843e-07
1.92845165184e-07
1.87228031643e-07
2.14435098362e-07
2.14156752134e-07
2.1307669522e-07
2.11311177768e-07
2.08765407675e-07
2.05376388411e-07
2.01138361503e-07
1.96156460047e-07
1.90520624031e-07
1.84954560701e-07
2.12070825504e-07
2.11769305443e-07
2.10604418385e-07
2.08741765601e-07
2.06131281586e-07
2.02734358131e-07
1.98544073052e-07
1.9362541458e-07
1.88116131625e-07
1.82682201003e-07
2.08995745756e-07
2.08649688725e-07
2.07367519802e-07
2.05382309314e-07
2.02724222935e-07
1.99417389786e-07
1.95450153673e-07
1.90817377182e-07
1.85644464967e-07
1.80400385579e-07
2.05260602205e-07
2.04785160786e-07
2.0333803101e-07
2.01238307211e-07
1.9859106015e-07
1.95458768976e-07
1.91827881278e-07
1.87691039019e-07
1.83054236106e-07
1.780689289e-07
2.00959640286e-07
2.00191870176e-07
1.98522310582e-07
1.96349092137e-07
1.93770739399e-07
1.90871588066e-07
1.87684058436e-07
1.84179547659e-07
1.80231578863e-07
1.75602377529e-07
1.96015218241e-07
1.94812185601e-07
1.92919552012e-07
1.90727842855e-07
1.88324494828e-07
1.85751794781e-07
1.830442919e-07
1.80176956067e-07
1.77034203258e-07
1.72944751778e-07
1.9091228479e-07
1.891551824e-07
1.87211121763e-07
1.85106153262e-07
1.82888680171e-07
1.80541270842e-07
1.78081706536e-07
1.7552245814e-07
1.7287660372e-07
1.69464736079e-07
2.72882000136e-07
2.72656237621e-07
2.71398928285e-07
2.69150993519e-07
2.65742363113e-07
2.61170255698e-07
2.55567055924e-07
2.49115249014e-07
2.41747888561e-07
2.33985260195e-07
2.72709450566e-07
2.72496864479e-07
2.71254856273e-07
2.68976923659e-07
2.65462280383e-07
2.60695616514e-07
2.54788934427e-07
2.4788092159e-07
2.39920076757e-07
2.31435299207e-07
2.71337513426e-07
2.71155557074e-07
2.69861759379e-07
2.67465093139e-07
2.63790302102e-07
2.5883305153e-07
2.52676129644e-07
2.45428173242e-07
2.371123744e-07
2.28520457343e-07
2.689037764e-07
2.68729140486e-07
2.67332933863e-07
2.64783549773e-07
2.60971858145e-07
2.559227379e-07
2.49683932711e-07
2.42329060604e-07
2.33915817011e-07
2.2537580683e-07
2.6544385804e-07
2.65207667701e-07
2.63649099921e-07
2.60934511889e-07
2.57038338348e-07
2.52014551802e-07
2.45885126405e-07
2.38656582925e-07
2.30433362357e-07
2.22089678742e-07
2.61016160469e-07
2.60610605213e-07
2.5881871434e-07
2.55941481325e-07
2.52026895097e-07
2.47150278565e-07
2.41308336244e-07
2.34450208451e-07
2.26678309274e-07
2.18624270853e-07
2.55591302521e-07
2.54877854684e-07
2.52784765176e-07
2.49762547377e-07
2.45913459166e-07
2.41305850998e-07
2.35919031976e-07
2.29710849278e-07
2.22647770358e-07
2.14959224356e-07
2.49161460062e-07
2.47981901592e-07
2.45547439037e-07
2.42422302554e-07
2.38691052286e-07
2.34436406322e-07
2.29687203806e-07
2.24363749505e-07
2.1824684028e-07
2.1104365952e-07
2.41624897675e-07
2.39866779671e-07
2.3714313071e-07
2.33989265738e-07
2.30477264663e-07
2.26663845747e-07
2.22603801729e-07
2.18217986576e-07
2.13267510298e-07
2.06836133306e-07
2.33657902754e-07
2.31215856622e-07
2.28462061004e-07
2.25428085697e-07
2.22146842587e-07
2.18626545016e-07
2.14922489223e-07
2.11017189965e-07
2.06844112494e-07
2.01479773406e-07
3.43634007069e-07
3.43447309268e-07
3.4159329674e-07
3.38234874668e-07
3.3326674114e-07
3.26607205802e-07
3.18287968672e-07
3.08554698629e-07
2.97534495279e-07
2.85958478968e-07
3.43329499617e-07
3.43205449638e-07
3.41383959991e-07
3.37961863759e-07
3.32823335535e-07
3.2591378419e-07
3.17241726639e-07
3.06963976575e-07
2.95186365437e-07
2.82685470187e-07
3.41270691619e-07
3.41208940286e-07
3.39340053719e-07
3.35743364333e-07
3.3034060946e-07
3.23165195845e-07
3.14253337962e-07
3.03692592879e-07
2.91575973865e-07
2.78951212578e-07
3.37686552364e-07
3.37608422323e-07
3.35612807037e-07
3.31822680381e-07
3.26210744861e-07
3.18893557466e-07
3.09943769891e-07
2.99404188138e-07
2.87311588297e-07
2.74796338366e-07
3.32614465515e-07
3.32370356771e-07
3.30153175203e-07
3.26198474554e-07
3.20525504517e-07
3.1325963684e-07
3.04473605513e-07
2.9417102485e-07
2.82411253507e-07
2.70211625567e-07
3.26105156615e-07
3.25525316935e-07
3.22986324215e-07
3.18896863847e-07
3.13308053475e-07
3.06299997403e-07
2.97891466067e-07
2.88058543839e-07
2.76893032355e-07
2.65135102409e-07
3.18135530729e-07
3.1705779541e-07
3.14105996411e-07
3.09886372601e-07
3.04486007112e-07
2.97916654135e-07
2.90129802409e-07
2.81109736618e-07
2.70837541677e-07
2.59608981895e-07
3.08734990772e-07
3.07004830058e-07
3.03578040879e-07
2.99233842156e-07
2.9405429324e-07
2.88039499085e-07
2.81145125803e-07
2.73282950561e-07
2.64232808071e-07
2.53681034697e-07
2.97829626774e-07
2.95329790868e-07
2.91475562753e-07
2.87059067771e-07
2.8217939561e-07
2.76811752258e-07
2.70910804122e-07
2.64346810011e-07
2.5685973259e-07
2.47373127177e-07
2.86166658285e-07
2.82809728965e-07
2.7887164006e-07
2.74553767446e-07
2.69955977741e-07
2.65024755076e-07
2.59701702096e-07
2.53896169682e-07
2.47538047736e-07
2.39570312429e-07
4.28456747798e-07
4.28262201364e-07
4.25541788396e-07
4.20458976449e-07
4.13119301011e-07
4.03676691497e-07
3.92156661076e-07
3.78629069693e-07
3.63147620543e-07
3.46587340033e-07
4.27922155706e-07
4.27786154027e-07
4.25059347781e-07
4.19909799086e-07
4.12430390819e-07
4.02721180811e-07
3.90726390134e-07
3.76472101345e-07
3.60076959886e-07
3.42511541402e-07
4.25024061745e-07
4.24866382299e-07
4.22034993666e-07
4.16757507491e-07
4.09105386948e-07
3.99116791585e-07
3.86722782639e-07
3.72006978556e-07
3.55218054277e-07
3.37651711264e-07
4.19946795029e-07
4.19667124604e-07
4.16668488965e-07
4.11256944672e-07
4.03477014314e-07
3.93356264108e-07
3.80862121027e-07
3.66129332351e-07
3.49428945963e-07
3.32122402899e-07
4.126438618e-07
4.12125427646e-07
4.08898958822e-07
4.03350977648e-07
3.95543458537e-07
3.85532833528e-07
3.7331337389e-07
3.58975174862e-07
3.42768931473e-07
3.25918197397e-07
4.03202506875e-07
4.0232130683e-07
3.98776946414e-07
3.93094449764e-07
3.8538876468e-07
3.75750840647e-07
3.64146871245e-07
3.50570295518e-07
3.35208025498e-07
3.18971920178e-07
3.91769192078e-07
3.90349706377e-07
3.86362352148e-07
3.80549011898e-07
3.73099801816e-07
3.64071190936e-07
3.53367793379e-07
3.40945490099e-07
3.26808588016e-07
3.11345901308e-07
3.7856485985e-07
3.76361309289e-07
3.71801119101e-07
3.65873225572e-07
3.58775082099e-07
3.50520237177e-07
3.40993440409e-07
3.30076567751e-07
3.17552879724e-07
3.03074223717e-07
3.63549924274e-07
3.60322816727e-07
3.5519113512e-07
3.49211147331e-07
3.42567064882e-07
3.35189674212e-07
3.26939999767e-07
3.17668154925e-07
3.07140501396e-07
2.94110088247e-07
3.47347559789e-07
3.43012854793e-07
3.37745558527e-07
3.31922923554e-07
3.25693318194e-07
3.18932311023e-07
3.114766475e-07
3.03213937905e-07
2.94142857123e-07
2.83101462977e-07
5.25768514851e-07
5.25064218119e-07
5.21115871043e-07
5.14017434587e-07
5.03836730097e-07
4.90953186829e-07
4.7560633569e-07
4.57741213635e-07
4.37167084635e-07
4.14715648555e-07
5.24840312037e-07
5.24162410726e-07
5.20196087538e-07
5.13037391889e-07
5.02710419336e-07
4.89504824052e-07
4.73578964794e-07
4.54889956224e-07
4.33337365996e-07
4.09838734389e-07
5.20855277574e-07
5.20115316109e-07
5.16030828796e-07
5.0877062883e-07
4.98335964182e-07
4.84861740395e-07
4.68394082199e-07
4.49001163347e-07
4.26898119221e-07
4.03500295828e-07
5.13879551385e-07
5.12992586911e-07
5.08705848146e-07
5.01334851083e-07
4.90879277079e-07
4.77374050419e-07
4.60755855528e-07
4.41177788799e-07
4.19102873948e-07
3.96154543482e-07
5.03799990888e-07
5.02702945499e-07
4.98179771088e-07
4.90682616639e-07
4.80283620597e-07
4.67019810285e-07
4.50785787318e-07
4.31707495193e-07
4.10286847978e-07
3.88031321956e-07
4.90820039907e-07
4.89444369682e-07
4.84631290506e-07
4.7700510824e-07
4.66739363306e-07
4.5397631822e-07
4.38628156968e-07
4.20690454751e-07
4.00474163406e-07
3.79081089084e-07
4.75250081201e-07
4.73384667953e-07
4.68160858442e-07
4.60427115583e-07
4.50464530577e-07
4.38466303912e-07
4.24386054253e-07
4.08126714371e-07
3.8960811959e-07
3.69240729889e-07
4.57418553758e-07
4.54749235541e-07
4.48992393057e-07
4.41208799048e-07
4.31679037339e-07
4.2062165106e-07
4.08060339718e-07
3.93815403648e-07
3.77433573211e-07
3.58360581962e-07
4.37330004391e-07
4.33557477947e-07
4.27286880019e-07
4.19568402369e-07
4.10614927929e-07
4.00567741913e-07
3.89501764177e-07
3.77277024854e-07
3.63416947686e-07
3.46257103828e-07
4.15569206447e-07
4.1058669219e-07
4.04282906999e-07
3.96916917504e-07
3.88581170009e-07
3.79302063811e-07
3.69134490875e-07
3.58069370719e-07
3.46013419847e-07
3.31453958022e-07
6.34139989678e-07
6.32309771056e-07
6.26672362656e-07
6.17447185305e-07
6.04450959697e-07
5.8772044089e-07
5.67529876633e-07
5.44165831241e-07
5.17673862021e-07
4.88854065832e-07
6.32574874233e-07
6.30711467288e-07
6.25053160849e-07
6.15707023785e-07
6.02430005001e-07
5.85345794052e-07
5.6469056936e-07
5.40608269486e-07
5.13116581876e-07
4.83155087193e-07
6.27094772493e-07
6.25262389512e-07
6.19558834962e-07
6.09995944757e-07
5.96382554739e-07
5.7893381247e-07
5.5789931071e-07
5.33347758966e-07
5.05370220429e-07
4.75457719439e-07
6.17754310522e-07
6.15929544666e-07
6.1007910384e-07
6.0033982803e-07
5.86574637215e-07
5.69045415695e-07
5.47981998454e-07