/*--------------------------------*- C++ -*----------------------------------*\
  =========                 |
  \\      /  F ield         | OpenFOAM: The Open Source CFD Toolbox
   \\    /   O peration     | Website:  https://openfoam.org
    \\  /    A nd           | Version:  6
     \\/     M anipulation  |
\*---------------------------------------------------------------------------*/
FoamFile
{
    version     2.0;
    format      ascii;
    class       volScalarField;
    location    "0.00990509115";
    object      T;
}
// * * * * * * * * * * * * * * * * * * * * * * * * * * * * * * * * * * * * * //

dimensions      [0 0 0 1 0 0 0];

internalField   nonuniform List<scalar> 
101600
(
121.021572165
120.805530578
120.087808228
118.246981348
115.578973463
112.749657253
110.004593624
107.171967138
103.693114089
100.328757683
120.382809833
119.859587283
118.995034174
117.128207433
114.517897187
111.716854576
108.891202636
105.779825259
101.989460662
98.4594862562
119.1276523
118.363578743
117.40112671
115.702421847
113.382174673
110.740899381
107.738690793
104.233409463
100.247293975
96.8537427846
117.421427776
116.604618584
115.621708393
113.980672756
111.792491214
109.232690933
106.122561099
102.492945125
98.544125916
95.2777701403
115.422210372
114.674005639
113.663061165
111.926208869
109.609180763
106.960934794
103.905818437
100.479718696
96.8071788758
93.6576702768
113.224082211
112.480765489
111.343963174
109.495599419
107.041184272
104.353654879
101.48758817
98.3917183018
95.1074825245
92.1114287418
110.714776276
109.811347883
108.387274062
106.392546293
104.012420283
101.578241774
99.0729872048
96.4046316578
93.605089036
90.8946229132
107.666215427
106.448743325
104.692368985
102.57004767
100.411150466
98.4500632716
96.5671044642
94.5076234775
92.2325901345
89.8665596518
103.921234107
102.442580218
100.558170774
98.4910848192
96.6721793612
95.2010821852
93.8968173692
92.4733316457
90.8149863924
88.8318481957
100.388676838
98.7050390292
96.9475184026
95.0726372802
93.5118688053
92.3098753908
91.2491506618
90.145540868
88.9377794551
87.350257311
135.519477157
135.215696121
134.204783976
132.015544324
128.98588704
125.740875007
122.477372929
119.019783282
114.838422801
110.881844813
134.653975098
134.106216558
132.95118371
130.655547593
127.610800196
124.435744493
121.126993207
117.341022507
112.834282122
108.716739568
133.123872632
132.346582018
131.008919394
128.747897183
125.955102109
122.972053395
119.492574255
115.334089037
110.717290337
106.772279467
131.113608899
130.231381074
128.774550229
126.494630546
123.828309937
120.90550832
117.32144267
113.112616171
108.593966142
104.780315828
128.776476087
127.905805933
126.449368999
124.146193098
121.348395273
118.255404549
114.68601957
110.676082027
106.419862412
102.725328551
126.135820356
125.229168804
123.781855635
121.538013525
118.633393739
115.42831309
111.966313902
108.212543859
104.317407203
100.801914014
123.02718754
121.906104183
120.267817308
118.026630234
115.247728739
112.266660202
109.150118861
105.846345878
102.467799856
99.2686725988
119.328590568
117.830921531
115.858321179
113.538260016
111.004697629
108.499587672
106.074161925
103.52796099
100.796949561
97.9869427387
114.928227335
113.143248258
110.994456644
108.695263956
106.515825929
104.554987272
102.813729918
101.068792383
99.1195869239
96.7690782279
110.803608253
108.78921095
106.726611129
104.595525757
102.738890742
101.136823567
99.6943906914
98.3301376599
96.9344397288
95.0558103738
154.883741289
154.349987992
152.928830969
150.422287519
147.120740851
143.423256023
139.438592331
135.109139578
130.064925149
125.404189288
153.696543864
152.938781339
151.365970581
148.716543204
145.367415336
141.779311636
137.788606972
133.121512814
127.758158092
122.891600581
151.852213032
150.860815486
149.01731799
146.234055858
143.019101231
139.611546739
135.518021927
130.592290971
125.209759491
120.504539947
149.547515727
148.413292086
146.357779332
143.435981482
140.253362647
136.846162619
132.68046194
127.801523342
122.561540454
117.990259342
146.866110815
145.706442617
143.672613717
140.754835524
137.406806936
133.741275803
129.524122233
124.802842686
119.816740783
115.426666592
143.65514417
142.439650449
140.543683427
137.822289279
134.39421634
130.537047786
126.316206971
121.766363431
117.1513581
113.037574528
139.732351319
138.28990704
136.345729536
133.788841126
130.518363461
126.816283038
122.889599129
118.818445505
114.788561146
111.061423468
135.231304486
133.385655264
131.149530486
128.582788237
125.55351517
122.298010175
119.108092447
115.938376391
112.700640387
109.41452822
130.11202792
127.930226653
125.440062752
122.835107646
120.165574286
117.536632901
115.173006773
112.980706221
110.696898056
107.949817845
125.324295342
122.838353991
120.353713893
117.867939062
115.580255351
113.422274352
111.468812501
109.763681195
108.144873667
105.937191158
180.905189815
179.91402087
177.93976535
175.096617722
171.551895786
167.333359332
162.425244545
157.005830679
150.969197568
145.469748716
179.299337663
178.061407547
175.925196834
172.97363837
169.408108215
165.30880682
160.419754997
154.698800991
148.34193593
142.511129215
177.071870408
175.592125015
173.154885976
169.952848866
166.351950936
162.345150787
157.442750232
151.619664932
145.282156263
139.539669837
174.438579449
172.808568113
170.118907375
166.668216654
162.938249343
158.830929754
153.886282417
148.184849043
142.001383552
136.399652629
171.326640697
169.671182159
166.981928329
163.484284555
159.540036888
155.125598606
150.068440826
144.474563164
138.574850554
133.286826481
167.372329344
165.686048977
163.170788782
159.873062215
155.85871077
151.228634019
146.102844747
140.647937896
135.20193082
130.364565701
162.46721865
160.608995961
158.161420783
155.097047531
151.223264179
146.68541051
141.810864206
136.882618981
132.13748678
127.802075266
157.066057638
154.822229295
152.151047912
149.127664476
145.451735926
141.307159234
137.169588134
133.23482927
129.429521451
125.608244436
151.164275484
148.50304822
145.504589974
142.392349496
139.066973147
135.623715789
132.437860704
129.606010567
126.898437231
123.707667374
145.601847664
142.489174041
139.408033755
136.374967377
133.468266111
130.598571561
127.977790423
125.768134449
123.810298194
121.207504641
215.436971645
213.824806513
211.220467791
207.920314137
203.954685213
199.04771015
193.098547794
186.522101437
179.416497252
172.906580357
213.428688885
211.576466975
208.822719217
205.488340016
201.550603881
196.709410692
190.739907044
183.875942203
176.38571475
169.346484125
210.752723424
208.688272991
205.707461106
202.143621309
198.037948754
193.126862154
187.138746172
180.227142885
172.687968447
165.637045614
207.628532309
205.433955778
202.240866455
198.416184998
194.064286484
188.953174761
182.900806243
176.099720688
168.68629889
161.787985565
203.842209683
201.635151028
198.357335191
194.380008342
189.809295265
184.45875763
178.318977146
171.626156724
164.570663068
158.118156277
198.980582495
196.792812725
193.556909994
189.587237669
184.93780137
179.4960782
173.404850947
166.956356975
160.498050416
154.651103008
193.089965226
190.818831615
187.614906603
183.736048518
179.150833814
173.833973345
168.063570152
162.254494682
156.647639524
151.412226866
186.765726938
184.128925943
180.728692625
176.873237824
172.416149543
167.444401204
162.378933065
157.591387134
153.064538107
148.451084959
179.90973163
176.740525679
173.00873737
169.094106966
164.978679602
160.71213943
156.615825827
152.943639654
149.614830688
145.766287805
173.322043726
169.499956803
165.669658314
161.876968079
158.205310242
154.554068159
151.131955326
148.163308634
145.603436397
142.415398876
259.224972735
257.100569473
253.986070702
250.107240556
245.391662813
239.552723598
232.559072795
224.905567509
216.657216365
208.902374134
257.023830732
254.776004414
251.580534688
247.711502259
243.012404919
237.107140855
229.939835827
221.890989403
213.102987561
204.609554145
253.924591338
251.573868389
248.289578238
244.310429612
239.410674872
233.264755029
225.908625578
217.657945271
208.657006972
200.086119558
250.081744606
247.641891405
244.226673686
240.077075183
234.950064708
228.57955428
221.092686389
212.840563983
203.893867435
195.473862376
245.338117216
242.85885811
239.240372266
234.849286414
229.575512926
223.167081036
215.757015714
207.691616608
199.156173963
191.189860922
239.524335712
237.045549147
233.202776084
228.524149744
223.164192414
216.935807426
209.904719402
202.334155485
194.521735431
187.149362785
232.802062356
230.236487644
226.184880953
221.282483654
215.898711774
209.957627766
203.482937936
196.760762637
189.949500649
183.208927965
225.545829366
222.552664607
218.217847258
213.246235295
207.944878612
202.350921893
196.5825914
190.912597601
185.320762091
179.323392361
217.438345669
213.776964655
209.173705945
204.262739644
199.325075618
194.367852357
189.469693041
184.849987595
180.556310443
175.51470491
209.448274006
204.942621759
200.326857562
195.676385829
191.220416494
186.840992555
182.581934684
178.618347719
175.081435715
170.901855346
310.714941216
308.435890722
305.089514323
300.686877652
295.103917986
288.273591126
280.344579949
271.701752304
262.188437646
252.925080861
308.620281807
306.401628764
303.084579503
298.67329466
292.997438442
285.922636335
277.597548405
268.348520164
258.108500825
247.941388467
305.273419893
303.110387982
299.793120984
295.321872452
289.448042872
282.034785123
273.306729517
263.60361766
252.977622839
242.71240133
300.701758976
298.515374016
295.106104251
290.518076976
284.490671989
276.909631168
268.016995719
258.184261626
247.508454556
237.355796761
294.995878032
292.699829128
289.006439555
284.148472333
278.050218178
270.617721332
261.990695222
252.428017981
242.127535743
232.300762685
288.346072141
285.886299623
281.743749217
276.44066242
270.275329536
263.234878459
255.275194868
246.426192166
236.884011408
227.493503444
280.894197337
278.14838435
273.50529339
267.762199248
261.565613566
254.982354912
247.815701692
240.01817408
231.579205893
222.757440529
272.645589577
269.294224085
264.187691696
258.273499409
252.181430276
246.021648538
239.653497139
233.013669559
225.926657238
217.920762052
263.11276637
258.962788148
253.588951425
247.797573406
242.101181237
236.542088077
230.998036708
225.438583315
219.826719548
212.957674492
253.502506488
248.38389999
243.066003227
237.618498712
232.415017262
227.35712852
222.325870066
217.340107166
212.578485523
206.95054509
365.901248407
363.837176971
360.511300069
355.852219233
349.782416639
342.38962836
333.864904145
324.398995243
313.685168943
302.889699896
364.113365172
362.207838162
358.970987903
354.251592059
347.958524099
340.182629664
331.106283236
320.873604568
309.290246572
297.458299474
360.807898927
359.042984951
355.787434573
350.922509119
344.371420159
336.221526789
326.651039525
315.829593468
303.747463682
291.7766909
355.933440037
354.193342469
350.8137296
345.76214378
339.030278544
330.729088554
320.997857551
309.992917135
297.770227254
285.839492786
349.728729515
347.819554881
344.148167162
338.837937848
332.017926173
323.84348302
314.376985448
303.61948275
291.68042582
279.958011525
342.516338939
340.234947669
336.079722622
330.415575965
323.565664682
315.735967561
306.877263377
296.793956137
285.551073372
274.161025914
334.371099859
331.524830357
326.755063229
320.717583509
313.920672731
306.56520845
298.493260495
289.460520023
279.313442574
268.437718873
325.181777271
321.532770739
316.144572783
309.882504906
303.235128983
296.390115619
289.234960953
281.483471192
272.761904334
262.674252998
314.492932802
309.943746764
304.135512405
297.859439477
291.555240379
285.343732442
279.134769161
272.677080364
265.673823503
256.796743915
303.520263125
297.933313843
292.093499002
286.02960775
280.107131282
274.31377212
268.55842313
262.724034572
256.814601395
249.608375817
417.371271717
415.751245892
412.684462239
408.1915393
402.310831172
395.122214788
386.66805012
376.967682154
365.74077454
354.018259475
415.914127578
414.393313683
411.367535763
406.785396267
400.66104494
393.080445154
384.063492405
373.569039777
361.382383505
348.510181784
412.928091638
411.478370832
408.375432129
403.582497714
397.143214282
389.161943672
379.645071159
368.547802545
355.786352609
342.676775611
408.398513238
406.92841804
403.658403125
398.610370397
391.896307403
383.664692026
373.921194073
362.603098956
349.642545325
336.486881333
402.447406386
400.788790062
397.250294664
391.948637359
385.057600098
376.766175313
367.087633948
355.88121682
343.109101006
330.108558614
395.241379071
393.169285536
389.227962954
383.686561381
376.747554664
368.598611102
359.238728986
348.464908883
336.247895854
323.551867213
386.835704304
384.121826098
379.624660452
373.832960169
366.969951663
359.168828074
350.390548308
340.456184331
329.188230313
316.945791983
377.236298093
373.663353334
368.496147344
362.439965532
355.692283402
348.373921734
340.493163949
331.818952355
321.920995661
310.349919544
366.144119668
361.60624921
355.831489707
349.547958762
342.988538957
336.262680263
329.403312348
322.171495907
314.115161038
303.708989047
354.505658903
348.867233485
342.876493785
336.561742843
330.175783574
323.759287271
317.34859468
310.829346415
304.028201216
295.57175736
453.422308698
452.225435701
449.719438042
445.92204846
440.850415268
434.534495155
426.952402365
418.048524242
407.601666908
396.215107427
452.223741625
451.022049726
448.485131028
444.604953584
439.3640057
432.754710353
424.707733457
415.104044333
403.721716753
391.201791649
449.721521344
448.482408728
445.841438252
441.786279392
436.281162331
429.305840964
420.780419332
410.582425548
398.577212683
385.722321273
445.950729924
444.621340075
441.804629517
437.514746734
431.730441398
424.447328003
415.604166812
405.094525777
392.811773394
379.809948711
440.908278652
439.408385963
436.333152115
431.771871418
425.751198734
418.290511785
409.344714551
398.796175813
386.558242726
373.597908716
434.585863079
432.789249392
429.356527756
424.509898478
418.336111225
410.86543807
402.045158036
391.731892287
379.842417288
367.059017957
426.965131764
424.684809153
420.769470518
415.626927315
409.394625509
402.090826478
393.647180766
383.929788724
372.750813649
360.272808825
418.049352776
415.043342732
410.506698381
405.046500019
398.806233164
391.803683334
384.017200202
375.299577173
365.265576804
353.305873479
407.663255371
403.720851818
398.531699941
392.759622418
386.553713747
379.938593266
372.944901825
365.445671351
357.049260431
346.119585495
396.37906227
391.339814861
385.812273584
379.862529162
373.65928639
367.204683299
360.545985295
353.643516927
346.354379866
337.376521818
462.886972894
461.902827047
460.058187217
457.275002165
453.446080804
448.521356219
442.496579928
435.336038839
426.909324499
417.320755005
461.864569235
460.862989189
458.975683409
456.105542877
452.137117728
447.009937466
440.68526082
433.063759132
423.942793225
413.462797754
459.895793865
458.857581903
456.873697064
453.848554571
449.682660331
444.311337994
437.658657452
429.583304794
419.919703429
409.06438163
457.005631159
455.890716945
453.749350902
450.519400873
446.139880255
440.549597724
433.64202813
425.253908456
415.26567826
404.160346605
453.211496886
451.954064197
449.584137929
446.109086485
441.519650389
435.763913678
428.714331045
420.20183608
410.094171039
398.861848062
448.451043663
446.963068122
444.285621976
440.533183346
435.753488434
429.90597468
422.856956118
414.420621733
404.412705682
393.15928024
442.587349434
440.754299831
437.685866233
433.634241716
428.697795378
422.850669582
415.967080137
407.843158428
398.220430865
387.070413172
435.483868074
433.148493854
429.59923019
425.233732737
420.184429124
414.421824993
407.852074118
400.302530652
391.420440824
380.58125772
427.025355673
423.984160422
419.906104267
415.239656594
410.08816845
404.431755772
398.247511276
391.438260269
383.701133506
373.6163853
417.407766226
413.503397119
409.076109289
404.169451863
398.886303201
393.203669486
387.124190168
380.629770029
373.648057193
365.203285902
443.729529299
442.867069299
441.498664765
439.586236897
437.097699273
433.919725462
429.950574677
425.126012379
419.438009977
412.713656478
442.815831803
441.960538425
440.554423492
438.553271637
435.949138819
432.660580973
428.579013976
423.577787085
417.535538099
410.288439108
441.395898799
440.525071009
439.055782061
436.930497217
434.178910798
430.762727004
426.558802839
421.360763665
414.996461293
407.412372614
439.446545245
438.512372983
436.94311031
434.684012634
431.788640769
428.239742324
423.901237656
418.517147141
411.910326406
404.044423416
436.962569362
435.901035496
434.199222333
431.820880487
428.806858989
425.122376127
420.626487146
415.094108065
408.29841572
400.216167433
433.868320849
432.620930879
430.751809662
428.254768703
425.138462671
421.330207872
416.701605169
411.069987694
404.155963766
395.918212344
430.051026319
428.582030203
426.498796999
423.841592475
420.604047187
416.706226586
412.036413121
406.395595259
399.499663736
391.175289769
425.367275706
423.648658422
421.286979405
418.393972325
415.012754726
411.058634194
406.416596772
400.916853987
394.268972084
385.988051718
419.740751055
417.667954392
414.961548506
411.788818771
408.191674731
404.123465866
399.528737572
394.303127791
388.201115945
380.272934467
413.005201662
410.45420372
407.43377335
403.967227644
400.12026063
395.868546911
391.180553888
386.01042706
380.277614841
373.425664576
404.556918763
403.802205891
402.811309283
401.578202332
400.229263101
398.742940496
396.972335534
394.731623184
391.968723848
388.406171335
403.769126512
402.989436429
401.94038909
400.654023388
399.278935767
397.788557136
396.016373642
393.76171675
390.92551916
387.224895113
402.90648334
402.061271954
400.970924675
399.663669259
398.267254708
396.737714201
394.910154337
392.581236297
389.628095715
385.729627987
401.859550819
400.932476603
399.811893441
398.498349803
397.069673446
395.457681205
393.51947574
391.067223467
387.975707546
383.852381491
400.5646084
399.56949329
398.43512853
397.120012309
395.647103488
393.929556091
391.845671218
389.258977532
385.974704892
381.611339956
398.95827153
397.930574899
396.795357773
395.463349081
393.924530976
392.08591535
389.850550106
387.110129448
383.599613007
379.003934596
397.045187384
396.016832251
394.867739981
393.478094247
391.83152927
389.857182349
387.479258417
384.552212641
380.830754707
376.030646053
394.795463716
393.765690381
392.543395928
391.026060542
389.251121596
387.136504764
384.581138409
381.472157354
377.623599025
372.678467378
392.158443296
391.047651871
389.660923922
387.955750762
385.967291979
383.632525105
380.878982036
377.649506431
373.80913837
368.862593086
388.713059484
387.434963983
385.803341946
383.835428483
381.586895377
379.012841369
376.052671434
372.676883048
368.833707441
364.320756642
357.627644203
356.893330043
356.300805283
355.779989961
355.410962553
355.253432888
355.261253181
355.238431196
355.036748134
354.322025275
357.001664688
356.21434584
355.568178311
355.03406198
354.691219351
354.566993213
354.613154667
354.676138018
354.611498978
354.040810014
356.591263756
355.731101308
355.061336532
354.566799398
354.293008177
354.19881617
354.215175295
354.237588388
354.167260321
353.534633722
356.254209175
355.350386631
354.690205042
354.241080999
354.014360247
353.915174496
353.854917279
353.758800001
353.584296514
352.803876376
355.949786474
355.074576304
354.464205103
354.038509651
353.795071365
353.643235476
353.492603094
353.286565303
352.928272388
351.927518659
355.658303033
354.886998062
354.360734235
353.934591368
353.616508835
353.357487142
353.09614157
352.765463898
352.173631068
350.924491142
355.409662775
354.788016741
354.362094312
353.926860974
353.498872552
353.08247867
352.656176234
352.107088821
351.240104904
349.746762996
355.17909403
354.716767351
354.379856837
353.92309174
353.391598308
352.784969151
352.078313706
351.203059743
350.031906811
348.305861158
354.924741923
354.593991575
354.302834189
353.805459879
353.112779015
352.231008385
351.171043842
349.932694844
348.435961387
346.486431947
354.250413042
354.009002482
353.630874354
353.001558886
352.117804141
350.990740708
349.649373433
348.118611553
346.349837375
344.3309132
312.032277695
311.357555721
311.117441941
311.263488333
311.751611696
312.533023879
313.61421663
314.97438867
316.576351057
318.133844147
311.556073232
310.844496028
310.59015083
310.73289164
311.225971144
312.042715405
313.227015769
314.77551509
316.617185325
318.408586211
311.425922704
310.705147983
310.468182267
310.625943895
311.139978778
312.009780087
313.286404625
314.945598739
316.886379558
318.647416262
311.576227447
310.881150497
310.677477468
310.851787254
311.386981492
312.289057131
313.590968465
315.245890781
317.161045573
318.820397108
312.042820879
311.41114692
311.258235479
311.457281336
312.001513842
312.888691674
314.134122888
315.708166741
317.489434934
318.990235864
312.813016512
312.276773652
312.20496706
312.44069733
312.973695779
313.790757292
314.913783621
316.332667459
317.885100273
319.175234989
313.835762677
313.441489895
313.497512711
313.783147345
314.268534478
314.961037771
315.905991169
317.063706689
318.293375722
319.328828314
315.02341936
314.849622591
315.085716926
315.422459609
315.840782254
316.358499114
317.022225747
317.812174471
318.645841873
319.39826568
316.379471299
316.507194407
316.94195842
317.323872788
317.619139445
317.879118815
318.184492061
318.55605938
318.927739898
319.348539189
317.726398518
318.148842982
318.627467234
318.961768349
319.123721405
319.179224816
319.22394052
319.296191879
319.323695957
319.421753656
271.85125164
271.432805104
271.50059731
272.047871899
273.055857678
274.425401995
276.131445852
278.273315743
280.976567947
284.096919851
271.521525567
271.0888337
271.150943296
271.693586875
272.711808876
274.142071863
275.986407926
278.332866585
281.278750513
284.655328178
271.59186439
271.169843306
271.252814188
271.801022926
272.825254352
274.324874028
276.343587696
278.924770386
282.068926704
285.445949652
272.077299893
271.682618901
271.808610474
272.376148585
273.407171042
274.942276678
277.064327013
279.780990892
283.006429535
286.30694531
273.048550302
272.685481873
272.863608162
273.475870807
274.530559081
276.066348916
278.175178755
280.870221179
284.015324361
287.186000132
274.472142554
274.148799023
274.399027235
275.079896147
276.174989948
277.680351062
279.669854094
282.180924155
285.092224405
288.093291667
276.271341077
276.048732497
276.419481748
277.185785884
278.300459309
279.734497446
281.53163827
283.71860423
286.272856543
289.070312412
278.382000235
278.362296483
278.903595435
279.752145964
280.872110158
282.206647385
283.750624991
285.539008375
287.655371464
290.20340261
280.85491679
281.14131071
281.87032228
282.782049881
283.854690103
285.046927772
286.337182888
287.752099781
289.376832278
291.562370497
283.656745052
284.270984778
285.050009844
285.916932829
286.892718657
287.97064392
289.136147414
290.384953109
291.712715759
293.447104875
237.783377503
237.691625647
238.011945198
238.716125359
239.877583761
241.542506482
243.724669491
246.463091701
249.845457815
253.83322463
237.599806373
237.516960823
237.833848641
238.552573887
239.767767358
241.503184057
243.775799712
246.662248238
250.274468356
254.545427044
237.855517016
237.754793667
238.071147645
238.836753159
240.141464699
241.988941279
244.389258008
247.433102339
251.231717414
255.582450597
238.574617177
238.450693032
238.795155683
239.617220867
240.998093828
242.93397441
245.435144779
248.575895637
252.448339531
256.791885871
239.783823861
239.665985058
240.06742771
240.949863015
242.365428043
244.326991829
246.858941954
250.004146415
253.82444889
258.095852024
241.480601586
241.399084356
241.877461432
242.82038465
244.256685806
246.190644844
248.651408256
251.681825321
255.34726666
259.519761361
243.675196116
243.679863962
244.25421186
245.265459149
246.718914025
248.600328984
250.911211856
253.694875177
257.098389866
261.149395856
246.369379359
246.511667157
247.201539072
248.285132182
249.775715276
251.607995048
253.730471794
256.193332428
259.221623162
263.073253926
249.608913209
249.949944202
250.769648643
251.916991963
253.408063669
255.174533678
257.130610526
259.288955471
261.846383232
265.321535793
253.379850115
253.955359333
254.810508927
255.939136977
257.380047879
259.095624387
261.005493467
263.057098053
265.307833619
268.242869613
208.872958308
208.969749018
209.422327558
210.230065015
211.484608595
213.314081831
215.800844024
218.935255515
222.694304699
227.04342332
208.878623719
208.983868129
209.46523515
210.315607885
211.627700656
213.517097456
216.071407881
219.316842617
223.260588372
227.851838652
209.282574708
209.383195435
209.897219418
210.82585924
212.244175377
214.234065089
216.856682199
220.166502801
224.233208533
228.920328074
210.116424739
210.202323419
210.746298596
211.745233525
213.273475888
215.350869149
218.0046906
221.330044911
225.456047814
230.212416977
211.411261413
211.518159779
212.095441926
213.150058795
214.744542074
216.862187399
219.521385775
222.842429071
226.982310015
231.779291301
213.197259691
213.357400128
213.991226356
215.085879306
216.707849144
218.82644648
221.473351912
224.776395158
228.875737522
233.659443561
215.547767045
215.790786312
216.512407323
217.646443703
219.248473491
221.330502523
223.937177414
227.157217565
231.121007485
235.830069559
218.54070458
218.87618231
219.69843636
220.873959723
222.456146363
224.465807995
226.953588636
229.988848613
233.694708404
238.260937199
222.223423986
222.688844926
223.623830175
224.856228692
226.42028142
228.342261189
230.651917382
233.396284921
236.694905652
240.969375816
226.543901038
227.176060075
228.166660199
229.452112254
231.04191059
232.940117299
235.159001507
237.713712816
240.669522021
244.442945789
184.426770492
184.571516051
185.103724369
186.047833401
187.493709962
189.485665539
192.049466574
195.229896409
199.012618409
203.397258649
184.647935952
184.777832321
185.317245041
186.288681507
187.769714041
189.788374331
192.412876905
195.708642567
199.643817495
204.206057688
185.205734051
185.342589444
185.927037532
186.972537962
188.490763341
190.526798394
193.19115775
196.579341788
200.662606889
205.287773809
186.0936663
186.26986759
186.939685448
188.039815266
189.585904518
191.625098928
194.317526636
197.784454984
201.964916892
206.632025358
187.409294018
187.66752573
188.395131772
189.528818513
191.100635765
193.166935286
195.910470184
199.41544035
203.620255845
208.315498871
189.238990204
189.546977198
190.319213736
191.485606619
193.119945738
195.242765963
198.011643995
201.502470771
205.686791028
210.412328481
191.66405096
192.028772015
192.872177674
194.082360169
195.72898271
197.864774561
200.587736314
203.976234856
208.086786468
212.87017585
194.754362558
195.192677426
196.127321895
197.37953338
199.020835005
201.083087229
203.666242802
206.880283342
210.816181371
215.631698691
198.556534252
199.152107254
200.211492962
201.532568276
203.146175545
205.100827853
207.496486813
210.450431806
214.077245285
218.739387055
203.09305485
203.887796491
205.047995683
206.450270206
208.081805546
209.988479465
212.30387229
215.12027234
218.49773752
222.730517039
165.051741373
165.181060546
165.759729819
166.8557085
168.430446077
170.445583691
172.89449166
175.840846435
179.440965185
183.716899654
165.280355281
165.433353863
165.992593743
167.067950136
168.624366712
170.653385823
173.145346332
176.237927895
180.006966054
184.446698384
165.941558186
166.131424438
166.702293441
167.733917194
169.282119529
171.325580889
173.912386422
177.166951801
181.032711998
185.536697782
166.970670259
167.229939289
167.847792796
168.89931343
170.424705492
172.528308216
175.201052815
178.53024692
182.43736336
186.90880596
168.362833872
168.624937629
169.358985162
170.518136107
172.048663563
174.151149682
176.901840585
180.242612709
184.139065825
188.620389038
170.222400667
170.537511954
171.357230292
172.58749182
174.127780245
176.243665849
178.973441643
182.25393567
186.156621948
190.706720569
172.680740215
173.020758265
173.850614223
175.120417129
176.749347892
178.86812225
181.521575917
184.715090973
188.567690986
193.247504026
175.726936948
176.178982165
177.087155397
178.448114889
180.130049992
182.203053917
184.728089545
187.758301136
191.510426221
196.225004125
179.381206579
180.050798997
181.173836947
182.572479352
184.265206539
186.304798458
188.74314989
191.630030008
195.127284992
199.745687411
183.860577603
184.813798613
186.0265105
187.431382118
189.091778631
191.132595455
193.563570629
196.437788057
199.849960193
204.098696416
96.5825523503
92.1035935459
88.324417285
85.2133060444
83.0401530543
81.6319673151
80.5470881415
79.9221195186
80.0453779146
80.8335270329
94.6569405791
90.7291549097
87.2445904756
84.537760732
82.7526705726
81.4928339656
80.390136083
79.8082326486
80.0192549041
80.8487148046
93.3669039176
89.6415197928
86.436463011
84.0794236318
82.4926552879
81.2686176058
80.2267729288
79.7683380574
80.0092177202
80.8085140102
91.9410440066
88.534836474
85.7118552583
83.5827171286
82.1014514504
80.9961188051
80.1345904681
79.7876494463
80.0186180993
80.8075970027
90.4744558684
87.5022243438
85.0928104875
83.1456608112
81.726323028
80.7345454225
80.0472619242
79.7915142101
80.0597409155
80.8670230913
89.1510773523
86.5867254196
84.539155968
82.7841185878
81.4335061421
80.5182381751
79.9477977655
79.7900323302
80.1193231727
80.9217025821
88.1940870173
85.9217729789
84.0944665934
82.5009009652
81.2147818276
80.3443557563
79.8737106855
79.7991279443
80.1429580565
80.9359622458
87.4281803679
85.3636563273
83.6476501359
82.1811774376
80.9974665621
80.2180694608
79.8539768796
79.8152215601
80.1277188166
80.8982138363
86.6175091793
84.7869862485
83.1738482083
81.8257333862
80.8185953742
80.1798445142
79.8612214968
79.8174607544
80.1409318778
80.8992308195
85.7043579651
84.112481303
82.6369882749
81.4599494124
80.6417615698
80.1320488901
79.8449147152
79.8106987858
80.14879902
80.8974401392
106.442766041
100.990242728
96.2777920091
92.3806200252
89.6377933502
87.6940771232
86.1043226367
85.1738758305